
     Program PWSCF v.7.5 starts on 31May2026 at 11:59:26 

     This program is part of the open-source Quantum ESPRESSO suite
     for quantum simulation of materials; please cite
         "P. Giannozzi et al., J. Phys.:Condens. Matter 21 395502 (2009);
         "P. Giannozzi et al., J. Phys.:Condens. Matter 29 465901 (2017);
         "P. Giannozzi et al., J. Chem. Phys. 152 154105 (2020);
          URL http://www.quantum-espresso.org", 
     in publications or presentations arising from this work. More details at
     http://www.quantum-espresso.org/quote

     Parallel version (MPI), running on    64 processors

     MPI processes distributed on     1 nodes
     207540 MiB available memory on the printing compute node when the environment starts
 
     Waiting for input...
     Reading input from standard input

     Current dimensions of program PWSCF are:
     Max number of different atomic species (ntypx) = 10
     Max number of k-points (npk) =  40000
     Max angular momentum in pseudopotentials (lmaxx) =  4
     file O.pbe-n-kjpaw_psl.0.1.UPF: wavefunction(s)  2P renormalized
     Message from routine setup:
     using ibrav=0 with symmetry is DISCOURAGED, use correct ibrav instead
 
     K-points division:     npool     =       4
     R & G space division:  proc/nbgrp/npool/nimage =      16
     Subspace diagonalization in iterative solution of the eigenvalue problem:
     a serial algorithm will be used

 
     Parallelization info
     --------------------
     sticks:   dense  smooth     PW     G-vecs:    dense   smooth      PW
     Min         225     113     35                 9129     3238     560
     Max         226     114     36                 9132     3240     562
     Sum        3601    1809    567               146089    51811    8975
 
     Using Slab Decomposition
 


     bravais-lattice index     =            0
     lattice parameter (alat)  =      11.2378  a.u.
     unit-cell volume          =    1081.5099 (a.u.)^3
     number of atoms/cell      =           12
     number of atomic types    =            3
     number of electrons       =        96.00
     number of Kohn-Sham states=           58
     kinetic-energy cutoff     =      50.0000  Ry
     charge density cutoff     =     400.0000  Ry
     scf convergence threshold =      2.4E-09
     mixing beta               =       0.4000
     number of iterations used =            8  plain     mixing
     energy convergence thresh.=      1.2E-04
     force convergence thresh. =      1.0E-04
     press convergence thresh. =      5.0E-01
     Exchange-correlation= SLA  PW   PBE  PBE
                           (   1   4   3   4   0   0   0)
     nstep                     =           50


     celldm(1)=  11.237763  celldm(2)=   0.000000  celldm(3)=   0.000000
     celldm(4)=   0.000000  celldm(5)=   0.000000  celldm(6)=   0.000000

     crystal axes: (cart. coord. in units of alat)
               a(1) = (   0.599880   0.599880   0.529422 )  
               a(2) = (  -0.599880  -0.599880   0.529422 )  
               a(3) = (   0.599880  -0.599880  -0.529422 )  

     reciprocal axes: (cart. coord. in units 2 pi/alat)
               b(1) = (  0.833500 -0.000000  0.944427 )  
               b(2) = (  0.000000 -0.833500  0.944427 )  
               b(3) = (  0.833500 -0.833500  0.000000 )  


     PseudoPot. # 1 for O  read from file:
     ./pseudo/O.pbe-n-kjpaw_psl.0.1.UPF
     MD5 check sum: 0234752ac141de4415c5fc33072bef88
     Pseudo is Projector augmented-wave + core cor, Zval =  6.0
     Generated using "atomic" code by A. Dal Corso  v.5.0.99 svn rev. 10869
     Shape of augmentation charge: BESSEL
     Using radial grid of 1095 points,  4 beta functions with: 
                l(1) =   0
                l(2) =   0
                l(3) =   1
                l(4) =   1
     Q(r) pseudized with 0 coefficients 


     PseudoPot. # 2 for V  read from file:
     ./pseudo/v_pbe_v1.4.uspp.F.UPF
     MD5 check sum: 22b79981416ebb76fdaf5b1b8640f6fb
     Pseudo is Ultrasoft + core correction, Zval = 13.0
     Generated by new atomic code, or converted to UPF format
     Using radial grid of  853 points,  6 beta functions with: 
                l(1) =   0
                l(2) =   0
                l(3) =   1
                l(4) =   1
                l(5) =   2
                l(6) =   2
     Q(r) pseudized with  8 coefficients,  rinner =    1.100   1.100   1.100
                                                       1.100   1.100

     PseudoPot. # 3 for Y  read from file:
     ./pseudo/Y_pbe_v1.uspp.F.UPF
     MD5 check sum: 2cf71db95cafeb975fc457bd7f14888e
     Pseudo is Ultrasoft + core correction, Zval = 11.0
     Generated by new atomic code, or converted to UPF format
     Using radial grid of  885 points,  6 beta functions with: 
                l(1) =   0
                l(2) =   0
                l(3) =   1
                l(4) =   1
                l(5) =   2
                l(6) =   2
     Q(r) pseudized with  6 coefficients,  rinner =    1.200   1.200   1.200
                                                       1.200   1.200

     atomic species   valence    mass     pseudopotential
     O                 6.00    15.99940     O ( 1.00)
     V                13.00    50.94150     V ( 1.00)
     Y                11.00    88.90585     Y ( 1.00)

     16 Sym. Ops., with inversion, found ( 8 have fractional translation)


                                    s                        frac. trans.

      isym =  1     identity                                     

 cryst.   s( 1) = (     1          0          0      )
                  (     0          1          0      )
                  (     0          0          1      )

 cart.    s( 1) = (  1.0000000 -0.0000000 -0.0000000 )
                  ( -0.0000000  1.0000000 -0.0000000 )
                  (  0.0000000 -0.0000000  1.0000000 )


      isym =  2     180 deg rotation - cart. axis [0,0,1]        

 cryst.   s( 2) = (     0          1          0      )
                  (     1          0          0      )
                  (    -1         -1         -1      )

 cart.    s( 2) = ( -1.0000000  0.0000000 -0.0000000 )
                  (  0.0000000 -1.0000000 -0.0000000 )
                  ( -0.0000000  0.0000000  1.0000000 )


      isym =  3     180 deg rotation - cart. axis [0,1,0]        

 cryst.   s( 3) = (    -1         -1         -1      )    f =(  0.2500000 )
                  (     0          0          1      )       ( -0.2500000 )
                  (     0          1          0      )       (  0.5000000 )

 cart.    s( 3) = ( -1.0000000 -0.0000000  0.0000000 )    f =(  0.5998803 )
                  (  0.0000000  1.0000000  0.0000000 )       (  0.0000000 )
                  ( -0.0000000 -0.0000000 -1.0000000 )       ( -0.2647108 )


      isym =  4     180 deg rotation - cart. axis [1,0,0]        

 cryst.   s( 4) = (     0          0          1      )    f =(  0.2500000 )
                  (    -1         -1         -1      )       ( -0.2500000 )
                  (     1          0          0      )       ( -0.5000000 )

 cart.    s( 4) = (  1.0000000  0.0000000  0.0000000 )    f =(  0.0000000 )
                  ( -0.0000000 -1.0000000  0.0000000 )       (  0.5998803 )
                  (  0.0000000  0.0000000 -1.0000000 )       (  0.2647108 )


      isym =  5     180 deg rotation - cart. axis [1,1,0]        

 cryst.   s( 5) = (     0         -1          0      )
                  (    -1          0          0      )
                  (     0          0         -1      )

 cart.    s( 5) = ( -0.0000000  1.0000000  0.0000000 )
                  (  1.0000000 -0.0000000  0.0000000 )
                  ( -0.0000000  0.0000000 -1.0000000 )


      isym =  6     180 deg rotation - cart. axis [1,-1,0]       

 cryst.   s( 6) = (    -1          0          0      )
                  (     0         -1          0      )
                  (     1          1          1      )

 cart.    s( 6) = (  0.0000000 -1.0000000  0.0000000 )
                  ( -1.0000000  0.0000000  0.0000000 )
                  (  0.0000000 -0.0000000 -1.0000000 )


      isym =  7      90 deg rotation - cart. axis [0,0,-1]       

 cryst.   s( 7) = (     1          1          1      )    f =(  0.2500000 )
                  (     0          0         -1      )       ( -0.2500000 )
                  (    -1          0          0      )       (  0.5000000 )

 cart.    s( 7) = (  0.0000000  1.0000000 -0.0000000 )    f =(  0.5998803 )
                  ( -1.0000000 -0.0000000 -0.0000000 )       (  0.0000000 )
                  (  0.0000000  0.0000000  1.0000000 )       ( -0.2647108 )


      isym =  8      90 deg rotation - cart. axis [0,0,1]        

 cryst.   s( 8) = (     0          0         -1      )    f =(  0.2500000 )
                  (     1          1          1      )       ( -0.2500000 )
                  (     0         -1          0      )       ( -0.5000000 )

 cart.    s( 8) = ( -0.0000000 -1.0000000 -0.0000000 )    f =(  0.0000000 )
                  (  1.0000000  0.0000000 -0.0000000 )       (  0.5998803 )
                  ( -0.0000000 -0.0000000  1.0000000 )       (  0.2647108 )


      isym =  9     inversion                                    

 cryst.   s( 9) = (    -1          0          0      )    f =(  0.2500000 )
                  (     0         -1          0      )       ( -0.2500000 )
                  (     0          0         -1      )       (  0.5000000 )

 cart.    s( 9) = ( -1.0000000  0.0000000  0.0000000 )    f =(  0.5998803 )
                  (  0.0000000 -1.0000000  0.0000000 )       ( -0.0000000 )
                  ( -0.0000000  0.0000000 -1.0000000 )       ( -0.2647108 )


      isym = 10     inv. 180 deg rotation - cart. axis [0,0,1]   

 cryst.   s(10) = (     0         -1          0      )    f =(  0.2500000 )
                  (    -1          0          0      )       ( -0.2500000 )
                  (     1          1          1      )       ( -0.5000000 )

 cart.    s(10) = (  1.0000000 -0.0000000  0.0000000 )    f =(  0.0000000 )
                  ( -0.0000000  1.0000000  0.0000000 )       (  0.5998803 )
                  (  0.0000000 -0.0000000 -1.0000000 )       (  0.2647108 )


      isym = 11     inv. 180 deg rotation - cart. axis [0,1,0]   

 cryst.   s(11) = (     1          1          1      )
                  (     0          0         -1      )
                  (     0         -1          0      )

 cart.    s(11) = (  1.0000000  0.0000000 -0.0000000 )
                  ( -0.0000000 -1.0000000 -0.0000000 )
                  (  0.0000000  0.0000000  1.0000000 )


      isym = 12     inv. 180 deg rotation - cart. axis [1,0,0]   

 cryst.   s(12) = (     0          0         -1      )
                  (     1          1          1      )
                  (    -1          0          0      )

 cart.    s(12) = ( -1.0000000 -0.0000000 -0.0000000 )
                  (  0.0000000  1.0000000 -0.0000000 )
                  ( -0.0000000 -0.0000000  1.0000000 )


      isym = 13     inv. 180 deg rotation - cart. axis [1,1,0]   

 cryst.   s(13) = (     0          1          0      )    f =(  0.2500000 )
                  (     1          0          0      )       ( -0.2500000 )
                  (     0          0          1      )       ( -0.5000000 )

 cart.    s(13) = (  0.0000000 -1.0000000 -0.0000000 )    f =(  0.0000000 )
                  ( -1.0000000  0.0000000 -0.0000000 )       (  0.5998803 )
                  (  0.0000000 -0.0000000  1.0000000 )       (  0.2647108 )


      isym = 14     inv. 180 deg rotation - cart. axis [1,-1,0]  

 cryst.   s(14) = (     1          0          0      )    f =(  0.2500000 )
                  (     0          1          0      )       ( -0.2500000 )
                  (    -1         -1         -1      )       (  0.5000000 )

 cart.    s(14) = ( -0.0000000  1.0000000 -0.0000000 )    f =(  0.5998803 )
                  (  1.0000000 -0.0000000 -0.0000000 )       ( -0.0000000 )
                  ( -0.0000000  0.0000000  1.0000000 )       ( -0.2647108 )


      isym = 15     inv.  90 deg rotation - cart. axis [0,0,-1]  

 cryst.   s(15) = (    -1         -1         -1      )
                  (     0          0          1      )
                  (     1          0          0      )

 cart.    s(15) = ( -0.0000000 -1.0000000  0.0000000 )
                  (  1.0000000  0.0000000  0.0000000 )
                  ( -0.0000000 -0.0000000 -1.0000000 )


      isym = 16     inv.  90 deg rotation - cart. axis [0,0,1]   

 cryst.   s(16) = (     0          0          1      )
                  (    -1         -1         -1      )
                  (     0          1          0      )

 cart.    s(16) = (  0.0000000  1.0000000  0.0000000 )
                  ( -1.0000000 -0.0000000  0.0000000 )
                  (  0.0000000  0.0000000 -1.0000000 )


   Cartesian axes

     site n.     atom                  positions (alat units)
         1        O      tau(   1) = (   0.0000000  -0.3783971   0.0798945  )
         2        O      tau(   2) = (   0.2214832  -0.0000000   0.3446053  )
         3        O      tau(   3) = (   0.3783971  -0.5998803  -0.1848164  )
         4        O      tau(   4) = (  -0.0000000  -0.8213634   0.0798945  )
         5        O      tau(   5) = (   0.2214832  -0.5998803   0.4495272  )
         6        O      tau(   6) = (   0.5998803  -0.3783971   0.1848164  )
         7        O      tau(   7) = (   0.0000000  -0.2214832   0.7142380  )
         8        O      tau(   8) = (  -0.2214832  -0.5998803   0.4495272  )
         9        V      tau(   9) = (   0.0000000   0.0000000   0.5294217  )
        10        V      tau(  10) = (   0.0000000  -0.5998803   0.2647108  )
        11        Y      tau(  11) = (   0.0000000   0.0000000   0.0000000  )
        12        Y      tau(  12) = (   0.5998803  -0.0000000   0.2647108  )

   Crystallographic axes

     site n.     atom                  positions (cryst. coord.)
         1        O      tau(   1) = (  0.0754545  0.3908483  0.3153939  )
         2        O      tau(   2) = (  0.5100606  0.3254545  0.1846061  )
         3        O      tau(   3) = (  0.1408483  0.3254545  0.8153939  )
         4        O      tau(   4) = (  0.0754545  0.7600606  0.6846061  )
         5        O      tau(   5) = (  0.6091517  0.9245455  0.6846061  )
         6        O      tau(   6) = (  0.6745455  0.4899394  0.8153939  )
         7        O      tau(   7) = (  0.6745455  0.8591517  0.1846061  )
         8        O      tau(   8) = (  0.2399394  0.9245455  0.3153939  )
         9        V      tau(   9) = (  0.5000000  0.5000000  0.0000000  )
        10        V      tau(  10) = (  0.2500000  0.7500000  0.5000000  )
        11        Y      tau(  11) = (  0.0000000  0.0000000  0.0000000  )
        12        Y      tau(  12) = (  0.7500000  0.2500000  0.5000000  )

     number of k points=    13  Marzari-Vanderbilt smearing, width (Ry)=  0.0200
                       cart. coord. in units 2pi/alat
        k(    1) = (   0.0000000   0.0000000   0.0000000), wk =   0.0312500
        k(    2) = (   0.2083749  -0.2083749   0.0000000), wk =   0.1250000
        k(    3) = (  -0.4167498   0.4167498  -0.0000000), wk =   0.0625000
        k(    4) = (   0.0000000  -0.2083749   0.2361067), wk =   0.2500000
        k(    5) = (   0.2083749  -0.4167498   0.2361067), wk =   0.5000000
        k(    6) = (  -0.0000000   0.4167498  -0.4722134), wk =   0.1250000
        k(    7) = (   0.2083749   0.2083749  -0.4722134), wk =   0.2500000
        k(    8) = (   0.4167498  -0.4167498   0.4722134), wk =   0.0625000
        k(    9) = (   0.0000000   0.0000000   0.4722134), wk =   0.0625000
        k(   10) = (  -0.2083749   0.8334996  -0.2361067), wk =   0.2500000
        k(   11) = (   0.4167498   0.0000000   0.0000000), wk =   0.1250000
        k(   12) = (  -0.2083749   0.6251247  -0.0000000), wk =   0.1250000
        k(   13) = (  -0.8334996   0.8334996  -0.9444268), wk =   0.0312500

                       cryst. coord.
        k(    1) = (   0.0000000   0.0000000   0.0000000), wk =   0.0312500
        k(    2) = (  -0.0000000   0.0000000   0.2500000), wk =   0.1250000
        k(    3) = (   0.0000000  -0.0000000  -0.5000000), wk =   0.0625000
        k(    4) = (   0.0000000   0.2500000  -0.0000000), wk =   0.2500000
        k(    5) = (   0.0000000   0.2500000   0.2500000), wk =   0.5000000
        k(    6) = (  -0.0000000  -0.5000000   0.0000000), wk =   0.1250000
        k(    7) = (  -0.0000000  -0.5000000   0.2500000), wk =   0.2500000
        k(    8) = (   0.2500000   0.2500000   0.2500000), wk =   0.0625000
        k(    9) = (   0.2500000   0.2500000  -0.2500000), wk =   0.0625000
        k(   10) = (   0.2500000  -0.5000000  -0.5000000), wk =   0.2500000
        k(   11) = (   0.2500000  -0.2500000   0.2500000), wk =   0.1250000
        k(   12) = (   0.2500000  -0.2500000  -0.5000000), wk =   0.1250000
        k(   13) = (  -0.5000000  -0.5000000  -0.5000000), wk =   0.0312500

     Dense  grid:   146089 G-vectors     FFT dimensions: (  72,  72,  72)

     Smooth grid:    51811 G-vectors     FFT dimensions: (  60,  60,  54)

     Dynamical RAM for                 wfc:       0.36 MB

     Dynamical RAM for     wfc (w. buffer):       1.78 MB

     Dynamical RAM for           str. fact:       0.42 MB

     Dynamical RAM for           local pot:       0.00 MB

     Dynamical RAM for          nlocal pot:       0.84 MB

     Dynamical RAM for                qrad:       9.63 MB

     Dynamical RAM for          rho,v,vnew:       1.01 MB

     Dynamical RAM for               rhoin:       0.34 MB

     Dynamical RAM for            rho*nmix:       2.23 MB

     Dynamical RAM for           G-vectors:       0.55 MB

     Dynamical RAM for          h,s,v(r/c):       0.62 MB

     Dynamical RAM for          <psi|beta>:       0.12 MB

     Dynamical RAM for                 psi:       0.71 MB

     Dynamical RAM for                hpsi:       0.71 MB

     Dynamical RAM for                spsi:       0.71 MB

     Dynamical RAM for      wfcinit/wfcrot:       0.79 MB

     Dynamical RAM for           addusdens:       6.86 MB

     Dynamical RAM for          addusforce:       7.35 MB

     Dynamical RAM for         addusstress:       7.05 MB

     Estimated static dynamical RAM per process >      16.11 MB

     Estimated max dynamical RAM per process >      25.69 MB

     Estimated total dynamical RAM >       1.50 GB

     Check: negative core charge=   -0.000004

     Initial potential from superposition of free atoms

     starting charge      95.9886, renormalised to      96.0000

     negative rho (up, down):  8.676E-02 0.000E+00
     Starting wfcs are   78 randomized atomic wfcs
     Checking if some PAW data can be deallocated... 
       PAW data deallocated on   20 nodes for type:  1

     total cpu time spent up to now is        1.8 secs

     per-process dynamical memory:    41.0 Mb

     Self-consistent Calculation

     iteration #  1     ecut=    50.00 Ry     beta= 0.40
     Davidson diagonalization with overlap

---- Real-time Memory Report at c_bands before calling an iterative solver
           156 MiB given to the printing process from OS
            40 MiB allocation reported by mallinfo(arena+hblkhd)
        204779 MiB available memory on the node where the printing process lives
------------------
     ethr =  1.00E-02,  avg # of iterations =  2.0

     negative rho (up, down):  8.824E-02 0.000E+00

     total cpu time spent up to now is        2.7 secs

     total energy              =    -797.87771956 Ry
     estimated scf accuracy    <       5.78564422 Ry

     iteration #  2     ecut=    50.00 Ry     beta= 0.40
     Davidson diagonalization with overlap

---- Real-time Memory Report at c_bands before calling an iterative solver
           166 MiB given to the printing process from OS
            40 MiB allocation reported by mallinfo(arena+hblkhd)
        204569 MiB available memory on the node where the printing process lives
------------------
     ethr =  6.03E-03,  avg # of iterations =  2.6

     negative rho (up, down):  8.814E-02 0.000E+00

     total cpu time spent up to now is        4.3 secs

     total energy              =    -796.77530754 Ry
     estimated scf accuracy    <      22.93585106 Ry

     iteration #  3     ecut=    50.00 Ry     beta= 0.40
     Davidson diagonalization with overlap

---- Real-time Memory Report at c_bands before calling an iterative solver
           175 MiB given to the printing process from OS
            40 MiB allocation reported by mallinfo(arena+hblkhd)
        204339 MiB available memory on the node where the printing process lives
------------------
     ethr =  6.03E-03,  avg # of iterations =  2.2

     negative rho (up, down):  8.922E-02 0.000E+00

     total cpu time spent up to now is        5.6 secs

     total energy              =    -799.99514538 Ry
     estimated scf accuracy    <       0.98022154 Ry

     iteration #  4     ecut=    50.00 Ry     beta= 0.40
     Davidson diagonalization with overlap

---- Real-time Memory Report at c_bands before calling an iterative solver
           177 MiB given to the printing process from OS
            40 MiB allocation reported by mallinfo(arena+hblkhd)
        204331 MiB available memory on the node where the printing process lives
------------------
     ethr =  1.02E-03,  avg # of iterations =  1.1

     negative rho (up, down):  9.061E-02 0.000E+00

     total cpu time spent up to now is        7.0 secs

     total energy              =    -799.97175363 Ry
     estimated scf accuracy    <       0.19695875 Ry

     iteration #  5     ecut=    50.00 Ry     beta= 0.40
     Davidson diagonalization with overlap

---- Real-time Memory Report at c_bands before calling an iterative solver
           178 MiB given to the printing process from OS
            40 MiB allocation reported by mallinfo(arena+hblkhd)
        204322 MiB available memory on the node where the printing process lives
------------------
     ethr =  2.05E-04,  avg # of iterations =  2.2

     negative rho (up, down):  9.045E-02 0.000E+00

     total cpu time spent up to now is        8.2 secs

     total energy              =    -800.01451903 Ry
     estimated scf accuracy    <       0.11127508 Ry

     iteration #  6     ecut=    50.00 Ry     beta= 0.40
     Davidson diagonalization with overlap

---- Real-time Memory Report at c_bands before calling an iterative solver
           180 MiB given to the printing process from OS
            40 MiB allocation reported by mallinfo(arena+hblkhd)
        204299 MiB available memory on the node where the printing process lives
------------------
     ethr =  1.16E-04,  avg # of iterations =  1.0

     negative rho (up, down):  9.029E-02 0.000E+00

     total cpu time spent up to now is        9.1 secs

     total energy              =    -800.02230499 Ry
     estimated scf accuracy    <       0.00360581 Ry

     iteration #  7     ecut=    50.00 Ry     beta= 0.40
     Davidson diagonalization with overlap

---- Real-time Memory Report at c_bands before calling an iterative solver
           180 MiB given to the printing process from OS
            40 MiB allocation reported by mallinfo(arena+hblkhd)
        204294 MiB available memory on the node where the printing process lives
------------------
     ethr =  3.76E-06,  avg # of iterations =  5.7

     negative rho (up, down):  9.018E-02 0.000E+00

     total cpu time spent up to now is       10.3 secs

     total energy              =    -800.02248230 Ry
     estimated scf accuracy    <       0.00065127 Ry

     iteration #  8     ecut=    50.00 Ry     beta= 0.40
     Davidson diagonalization with overlap

---- Real-time Memory Report at c_bands before calling an iterative solver
           182 MiB given to the printing process from OS
            40 MiB allocation reported by mallinfo(arena+hblkhd)
        204275 MiB available memory on the node where the printing process lives
------------------
     ethr =  6.78E-07,  avg # of iterations =  2.0

     negative rho (up, down):  9.013E-02 0.000E+00

     total cpu time spent up to now is       11.3 secs

     total energy              =    -800.02259720 Ry
     estimated scf accuracy    <       0.00013796 Ry

     iteration #  9     ecut=    50.00 Ry     beta= 0.40
     Davidson diagonalization with overlap

---- Real-time Memory Report at c_bands before calling an iterative solver
           182 MiB given to the printing process from OS
            40 MiB allocation reported by mallinfo(arena+hblkhd)
        204264 MiB available memory on the node where the printing process lives
------------------
     ethr =  1.44E-07,  avg # of iterations =  2.0

     negative rho (up, down):  9.011E-02 0.000E+00

     total cpu time spent up to now is       12.3 secs

     total energy              =    -800.02262066 Ry
     estimated scf accuracy    <       0.00000959 Ry

     iteration # 10     ecut=    50.00 Ry     beta= 0.40
     Davidson diagonalization with overlap

---- Real-time Memory Report at c_bands before calling an iterative solver
           183 MiB given to the printing process from OS
            40 MiB allocation reported by mallinfo(arena+hblkhd)
        204238 MiB available memory on the node where the printing process lives
------------------
     ethr =  9.99E-09,  avg # of iterations =  2.8

     negative rho (up, down):  9.011E-02 0.000E+00

     total cpu time spent up to now is       13.5 secs

     total energy              =    -800.02262333 Ry
     estimated scf accuracy    <       0.00000151 Ry

     iteration # 11     ecut=    50.00 Ry     beta= 0.40
     Davidson diagonalization with overlap

---- Real-time Memory Report at c_bands before calling an iterative solver
           184 MiB given to the printing process from OS
            40 MiB allocation reported by mallinfo(arena+hblkhd)
        204208 MiB available memory on the node where the printing process lives
------------------
     ethr =  1.57E-09,  avg # of iterations =  2.0

     negative rho (up, down):  9.011E-02 0.000E+00

     total cpu time spent up to now is       14.4 secs

     total energy              =    -800.02262355 Ry
     estimated scf accuracy    <       0.00000010 Ry

     iteration # 12     ecut=    50.00 Ry     beta= 0.40
     Davidson diagonalization with overlap

---- Real-time Memory Report at c_bands before calling an iterative solver
           184 MiB given to the printing process from OS
            40 MiB allocation reported by mallinfo(arena+hblkhd)
        204182 MiB available memory on the node where the printing process lives
------------------
     ethr =  1.06E-10,  avg # of iterations =  3.2

     negative rho (up, down):  9.011E-02 0.000E+00

     total cpu time spent up to now is       15.8 secs

     total energy              =    -800.02262357 Ry
     estimated scf accuracy    <       0.00000002 Ry

     iteration # 13     ecut=    50.00 Ry     beta= 0.40
     Davidson diagonalization with overlap

---- Real-time Memory Report at c_bands before calling an iterative solver
           185 MiB given to the printing process from OS
            40 MiB allocation reported by mallinfo(arena+hblkhd)
        204150 MiB available memory on the node where the printing process lives
------------------
     ethr =  1.79E-11,  avg # of iterations =  2.2

     negative rho (up, down):  9.011E-02 0.000E+00

     total cpu time spent up to now is       17.0 secs

     End of self-consistent calculation

          k = 0.0000 0.0000 0.0000 (  6481 PWs)   bands (ev):

   -57.2473 -57.2468 -33.4048 -33.3811 -31.3301 -31.3300 -31.1578 -31.1578
   -31.1530 -31.1530 -13.8675 -13.8675 -13.7177 -13.5807 -13.4637 -13.4637
   -10.4489  -9.7971  -9.4421  -9.4186  -9.4186  -9.1333  -9.0796  -9.0796
     2.2208   2.6217   2.8096   2.8519   3.0991   3.0991   3.4732   3.5475
     3.5475   3.7791   3.7791   3.8561   4.0000   4.5548   4.6036   4.7939
     5.1043   5.1043   5.9062   5.9446   5.9446   5.9448   5.9448   6.3380
     9.2410   9.9277  10.1402  10.1831  10.5176  11.6026  11.7132  11.7132
    12.1963  12.1963

     occupation numbers 
     1.0000   1.0000   1.0000   1.0000   1.0000   1.0000   1.0000   1.0000
     1.0000   1.0000   1.0000   1.0000   1.0000   1.0000   1.0000   1.0000
     1.0000   1.0000   1.0000   1.0000   1.0000   1.0000   1.0000   1.0000
     1.0000   1.0000   1.0000   1.0000   1.0000   1.0000   1.0000   1.0000
     1.0000   1.0000   1.0000   1.0000   1.0000   1.0000   1.0000   1.0000
     1.0000   1.0000   1.0000   1.0000   1.0000   1.0000   1.0000   1.0000
     0.0000   0.0000   0.0000   0.0000   0.0000   0.0000   0.0000   0.0000
     0.0000   0.0000

          k = 0.2084-0.2084 0.0000 (  6459 PWs)   bands (ev):

   -57.2472 -57.2469 -33.4013 -33.3846 -31.3301 -31.3301 -31.1571 -31.1571
   -31.1537 -31.1537 -13.8832 -13.8231 -13.6974 -13.6204 -13.5431 -13.4215
   -10.2376  -9.7565  -9.5852  -9.4781  -9.3398  -9.2643  -9.1823  -8.9674
     2.3542   2.6622   2.8101   2.8200   3.0133   3.2101   3.3278   3.4183
     3.4305   3.7092   3.8740   4.1946   4.3081   4.4670   4.6920   5.0188
     5.0996   5.2363   5.6439   5.6943   5.7570   5.8223   5.9645   6.2101
     9.4923   9.9335  10.0423  10.2529  10.6246  11.4297  11.4405  11.5824
    11.6911  11.9476

     occupation numbers 
     1.0000   1.0000   1.0000   1.0000   1.0000   1.0000   1.0000   1.0000
     1.0000   1.0000   1.0000   1.0000   1.0000   1.0000   1.0000   1.0000
     1.0000   1.0000   1.0000   1.0000   1.0000   1.0000   1.0000   1.0000
     1.0000   1.0000   1.0000   1.0000   1.0000   1.0000   1.0000   1.0000
     1.0000   1.0000   1.0000   1.0000   1.0000   1.0000   1.0000   1.0000
     1.0000   1.0000   1.0000   1.0000   1.0000   1.0000   1.0000   1.0000
     0.0000   0.0000   0.0000   0.0000   0.0000   0.0000   0.0000   0.0000
     0.0000   0.0000

          k =-0.4167 0.4167-0.0000 (  6470 PWs)   bands (ev):

   -57.2470 -57.2470 -33.3930 -33.3930 -31.3301 -31.3301 -31.1554 -31.1554
   -31.1553 -31.1553 -13.8316 -13.8316 -13.6996 -13.6996 -13.4764 -13.4764
    -9.7824  -9.7824  -9.5830  -9.5830  -9.5418  -9.5418  -8.9959  -8.9959
     2.6670   2.6670   2.8012   2.8012   2.8726   2.8726   3.3271   3.3271
     3.8334   3.8334   4.0351   4.0351   4.4627   4.4627   4.9328   4.9328
     5.3549   5.3549   5.4769   5.4769   5.5723   5.5723   5.9814   5.9814
     9.9106   9.9106  10.0734  10.0734  10.9957  10.9957  11.2324  11.2324
    11.5667  11.5667

     occupation numbers 
     1.0000   1.0000   1.0000   1.0000   1.0000   1.0000   1.0000   1.0000
     1.0000   1.0000   1.0000   1.0000   1.0000   1.0000   1.0000   1.0000
     1.0000   1.0000   1.0000   1.0000   1.0000   1.0000   1.0000   1.0000
     1.0000   1.0000   1.0000   1.0000   1.0000   1.0000   1.0000   1.0000
     1.0000   1.0000   1.0000   1.0000   1.0000   1.0000   1.0000   1.0000
     1.0000   1.0000   1.0000   1.0000   1.0000   1.0000   1.0000   1.0000
     0.0000   0.0000   0.0000   0.0000   0.0000   0.0000   0.0000   0.0000
     0.0000   0.0000

          k = 0.0000-0.2084 0.2361 (  6469 PWs)   bands (ev):

   -57.2473 -57.2468 -33.4032 -33.3843 -31.3289 -31.3286 -31.1580 -31.1571
   -31.1537 -31.1529 -13.8744 -13.8723 -13.7025 -13.6523 -13.4657 -13.4588
   -10.2041  -9.7283  -9.5553  -9.4058  -9.3650  -9.2900  -9.1195  -9.0897
     2.3834   2.6703   2.8685   2.9350   3.0303   3.3027   3.3103   3.3238
     3.5002   3.6791   4.0862   4.1499   4.2490   4.4877   4.5536   4.6662
     4.9597   5.0557   5.5380   5.5689   5.7953   5.9381   6.0847   6.2888
     9.5686   9.9765  10.1121  10.1633  10.8122  11.2653  11.5834  11.6776
    11.9213  12.0452

     occupation numbers 
     1.0000   1.0000   1.0000   1.0000   1.0000   1.0000   1.0000   1.0000
     1.0000   1.0000   1.0000   1.0000   1.0000   1.0000   1.0000   1.0000
     1.0000   1.0000   1.0000   1.0000   1.0000   1.0000   1.0000   1.0000
     1.0000   1.0000   1.0000   1.0000   1.0000   1.0000   1.0000   1.0000
     1.0000   1.0000   1.0000   1.0000   1.0000   1.0000   1.0000   1.0000
     1.0000   1.0000   1.0000   1.0000   1.0000   1.0000   1.0000   1.0000
     0.0000   0.0000   0.0000   0.0000   0.0000   0.0000   0.0000   0.0000
     0.0000   0.0000

          k = 0.2084-0.4167 0.2361 (  6457 PWs)   bands (ev):

   -57.2471 -57.2469 -33.3981 -33.3895 -31.3290 -31.3286 -31.1573 -31.1556
   -31.1551 -31.1535 -13.8942 -13.8083 -13.7717 -13.5962 -13.5383 -13.4403
    -9.9379  -9.6573  -9.5766  -9.5570  -9.4780  -9.3195  -9.1718  -9.0570
     2.5143   2.6701   2.7202   2.7642   2.8963   3.1579   3.4156   3.6999
     3.7432   3.8022   4.1200   4.2502   4.3495   4.3806   4.5149   4.8575
     5.0312   5.2962   5.3506   5.3731   5.5984   5.8135   5.8884   6.0944
     9.8754   9.9980  10.0430  10.2013  10.8298  11.0743  11.3712  11.4647
    11.6454  11.7790

     occupation numbers 
     1.0000   1.0000   1.0000   1.0000   1.0000   1.0000   1.0000   1.0000
     1.0000   1.0000   1.0000   1.0000   1.0000   1.0000   1.0000   1.0000
     1.0000   1.0000   1.0000   1.0000   1.0000   1.0000   1.0000   1.0000
     1.0000   1.0000   1.0000   1.0000   1.0000   1.0000   1.0000   1.0000
     1.0000   1.0000   1.0000   1.0000   1.0000   1.0000   1.0000   1.0000
     1.0000   1.0000   1.0000   1.0000   1.0000   1.0000   1.0000   1.0000
     0.0000   0.0000   0.0000   0.0000   0.0000   0.0000   0.0000   0.0000
     0.0000   0.0000

          k =-0.0000 0.4167-0.4722 (  6478 PWs)   bands (ev):

   -57.2472 -57.2469 -33.4008 -33.3884 -31.3278 -31.3270 -31.1581 -31.1557
   -31.1550 -31.1527 -13.8811 -13.8617 -13.7996 -13.5665 -13.5222 -13.4542
    -9.8998  -9.5786  -9.5676  -9.5492  -9.3920  -9.3291  -9.2851  -9.1007
     2.4880   2.6035   2.8593   3.0431   3.0915   3.1765   3.2609   3.4518
     3.6900   3.9772   4.0441   4.1607   4.3777   4.4476   4.5629   4.7274
     4.8133   5.2073   5.2656   5.3029   5.4849   5.5926   6.1865   6.1869
     9.9638  10.0649  10.0709  10.0972  10.8725  11.1378  11.5948  11.6340
    11.6798  11.8288

     occupation numbers 
     1.0000   1.0000   1.0000   1.0000   1.0000   1.0000   1.0000   1.0000
     1.0000   1.0000   1.0000   1.0000   1.0000   1.0000   1.0000   1.0000
     1.0000   1.0000   1.0000   1.0000   1.0000   1.0000   1.0000   1.0000
     1.0000   1.0000   1.0000   1.0000   1.0000   1.0000   1.0000   1.0000
     1.0000   1.0000   1.0000   1.0000   1.0000   1.0000   1.0000   1.0000
     1.0000   1.0000   1.0000   1.0000   1.0000   1.0000   1.0000   1.0000
     0.0000   0.0000   0.0000   0.0000   0.0000   0.0000   0.0000   0.0000
     0.0000   0.0000

          k = 0.2084 0.2084-0.4722 (  6453 PWs)   bands (ev):

   -57.2472 -57.2469 -33.4008 -33.3884 -31.3278 -31.3270 -31.1573 -31.1573
   -31.1535 -31.1535 -13.9191 -13.8416 -13.7238 -13.6616 -13.5063 -13.4330
    -9.8322  -9.7569  -9.5523  -9.4594  -9.3814  -9.3569  -9.2007  -9.1624
     2.5668   2.6369   2.7205   2.8331   3.0314   3.3788   3.4678   3.6081
     3.6812   3.7894   3.9992   4.2456   4.2634   4.3770   4.6444   4.7645
     4.7823   4.9269   5.2820   5.2927   5.6598   5.9362   5.9397   6.1813
     9.9860  10.0627  10.0699  10.0844  10.8635  11.1838  11.4874  11.5369
    11.7849  11.8792

     occupation numbers 
     1.0000   1.0000   1.0000   1.0000   1.0000   1.0000   1.0000   1.0000
     1.0000   1.0000   1.0000   1.0000   1.0000   1.0000   1.0000   1.0000
     1.0000   1.0000   1.0000   1.0000   1.0000   1.0000   1.0000   1.0000
     1.0000   1.0000   1.0000   1.0000   1.0000   1.0000   1.0000   1.0000
     1.0000   1.0000   1.0000   1.0000   1.0000   1.0000   1.0000   1.0000
     1.0000   1.0000   1.0000   1.0000   1.0000   1.0000   1.0000   1.0000
     0.0000   0.0000   0.0000   0.0000   0.0000   0.0000   0.0000   0.0000
     0.0000   0.0000

          k = 0.4167-0.4167 0.4722 (  6444 PWs)   bands (ev):

   -57.2470 -57.2470 -33.3946 -33.3946 -31.3274 -31.3274 -31.1554 -31.1554
   -31.1553 -31.1553 -13.8850 -13.8850 -13.6819 -13.6819 -13.4829 -13.4829
    -9.6105  -9.6105  -9.5429  -9.5429  -9.4445  -9.4445  -9.2538  -9.2538
     2.4992   2.4992   2.6198   2.6198   3.2357   3.2357   3.7224   3.7224
     4.0036   4.0036   4.1914   4.1914   4.2644   4.2644   4.5499   4.5499
     5.1407   5.1407   5.3164   5.3164   5.4829   5.4829   6.0280   6.0280
    10.0767  10.0767  10.1031  10.1031  10.9351  10.9351  11.1373  11.1373
    11.8078  11.8078

     occupation numbers 
     1.0000   1.0000   1.0000   1.0000   1.0000   1.0000   1.0000   1.0000
     1.0000   1.0000   1.0000   1.0000   1.0000   1.0000   1.0000   1.0000
     1.0000   1.0000   1.0000   1.0000   1.0000   1.0000   1.0000   1.0000
     1.0000   1.0000   1.0000   1.0000   1.0000   1.0000   1.0000   1.0000
     1.0000   1.0000   1.0000   1.0000   1.0000   1.0000   1.0000   1.0000
     1.0000   1.0000   1.0000   1.0000   1.0000   1.0000   1.0000   1.0000
     0.0000   0.0000   0.0000   0.0000   0.0000   0.0000   0.0000   0.0000
     0.0000   0.0000

          k = 0.0000 0.0000 0.4722 (  6449 PWs)   bands (ev):

   -57.2472 -57.2468 -33.4033 -33.3858 -31.3279 -31.3269 -31.1581 -31.1581
   -31.1527 -31.1527 -13.8814 -13.8814 -13.7622 -13.6382 -13.4539 -13.4539
    -9.9379  -9.8588  -9.5491  -9.3931  -9.3931  -9.3700  -9.0993  -9.0993
     2.7076   2.7946   3.0799   3.0799   3.0829   3.2272   3.2738   3.2738
     3.3476   3.3531   4.1124   4.1236   4.4041   4.5581   4.5581   4.5887
     4.7887   4.7887   5.3629   5.4621   5.4621   6.1453   6.1453   6.2005
     9.9305  10.0192  10.0471  10.1028  10.9402  11.2568  11.8042  11.8042
    11.9927  11.9927

     occupation numbers 
     1.0000   1.0000   1.0000   1.0000   1.0000   1.0000   1.0000   1.0000
     1.0000   1.0000   1.0000   1.0000   1.0000   1.0000   1.0000   1.0000
     1.0000   1.0000   1.0000   1.0000   1.0000   1.0000   1.0000   1.0000
     1.0000   1.0000   1.0000   1.0000   1.0000   1.0000   1.0000   1.0000
     1.0000   1.0000   1.0000   1.0000   1.0000   1.0000   1.0000   1.0000
     1.0000   1.0000   1.0000   1.0000   1.0000   1.0000   1.0000   1.0000
     0.0000   0.0000   0.0000   0.0000   0.0000   0.0000   0.0000   0.0000
     0.0000   0.0000

          k =-0.2084 0.8335-0.2361 (  6455 PWs)   bands (ev):

   -57.2471 -57.2469 -33.3983 -33.3893 -31.3292 -31.3283 -31.1583 -31.1576
   -31.1532 -31.1525 -13.8852 -13.8776 -13.7214 -13.6329 -13.4684 -13.4501
   -10.0205  -9.8640  -9.5706  -9.3959  -9.3861  -9.2930  -9.1161  -9.1090
     2.6015   2.6496   2.7742   2.9374   3.0074   3.1088   3.4137   3.4329
     3.8721   3.9317   4.1351   4.1791   4.1865   4.3041   4.3620   4.9274
     4.9481   5.1519   5.3800   5.4295   5.4725   5.8287   5.8608   6.0518
     9.9910  10.0273  10.0380  10.2260  10.7705  11.3263  11.5348  11.5966
    11.8469  12.0151

     occupation numbers 
     1.0000   1.0000   1.0000   1.0000   1.0000   1.0000   1.0000   1.0000
     1.0000   1.0000   1.0000   1.0000   1.0000   1.0000   1.0000   1.0000
     1.0000   1.0000   1.0000   1.0000   1.0000   1.0000   1.0000   1.0000
     1.0000   1.0000   1.0000   1.0000   1.0000   1.0000   1.0000   1.0000
     1.0000   1.0000   1.0000   1.0000   1.0000   1.0000   1.0000   1.0000
     1.0000   1.0000   1.0000   1.0000   1.0000   1.0000   1.0000   1.0000
     0.0000   0.0000   0.0000   0.0000   0.0000   0.0000   0.0000   0.0000
     0.0000   0.0000

          k = 0.4167 0.0000 0.0000 (  6437 PWs)   bands (ev):

   -57.2472 -57.2469 -33.3989 -33.3871 -31.3301 -31.3301 -31.1582 -31.1557
   -31.1550 -31.1527 -13.8783 -13.7991 -13.7862 -13.5550 -13.5202 -13.4549
   -10.1698  -9.7743  -9.5858  -9.5490  -9.3994  -9.1590  -9.0988  -9.0739
     2.4514   2.6512   2.8054   2.8393   2.8914   3.0820   3.5317   3.5471
     3.5871   3.6762   3.7814   4.1874   4.4052   4.4542   4.7583   5.1509
     5.1595   5.1861   5.3507   5.6013   5.6806   5.7274   5.9007   6.0674
     9.7150   9.9246  10.0032  10.2900  10.7602  11.2936  11.4552  11.5560
    11.5664  11.9900

     occupation numbers 
     1.0000   1.0000   1.0000   1.0000   1.0000   1.0000   1.0000   1.0000
     1.0000   1.0000   1.0000   1.0000   1.0000   1.0000   1.0000   1.0000
     1.0000   1.0000   1.0000   1.0000   1.0000   1.0000   1.0000   1.0000
     1.0000   1.0000   1.0000   1.0000   1.0000   1.0000   1.0000   1.0000
     1.0000   1.0000   1.0000   1.0000   1.0000   1.0000   1.0000   1.0000
     1.0000   1.0000   1.0000   1.0000   1.0000   1.0000   1.0000   1.0000
     0.0000   0.0000   0.0000   0.0000   0.0000   0.0000   0.0000   0.0000
     0.0000   0.0000

          k =-0.2084 0.6251-0.0000 (  6448 PWs)   bands (ev):

   -57.2470 -57.2470 -33.3930 -33.3930 -31.3301 -31.3301 -31.1576 -31.1576
   -31.1532 -31.1532 -13.8675 -13.8675 -13.6660 -13.6660 -13.4658 -13.4658
    -9.9918  -9.9918  -9.5083  -9.5083  -9.3475  -9.3475  -9.0569  -9.0569
     2.6118   2.6118   2.8117   2.8117   2.8961   2.8961   3.5238   3.5238
     3.8598   3.8598   4.0737   4.0737   4.3705   4.3705   4.7471   4.7471
     5.3041   5.3041   5.5046   5.5046   5.5832   5.5832   5.8291   5.8291
     9.9413   9.9413  10.1410  10.1410  11.0243  11.0243  11.3621  11.3621
    11.8682  11.8682

     occupation numbers 
     1.0000   1.0000   1.0000   1.0000   1.0000   1.0000   1.0000   1.0000
     1.0000   1.0000   1.0000   1.0000   1.0000   1.0000   1.0000   1.0000
     1.0000   1.0000   1.0000   1.0000   1.0000   1.0000   1.0000   1.0000
     1.0000   1.0000   1.0000   1.0000   1.0000   1.0000   1.0000   1.0000
     1.0000   1.0000   1.0000   1.0000   1.0000   1.0000   1.0000   1.0000
     1.0000   1.0000   1.0000   1.0000   1.0000   1.0000   1.0000   1.0000
     0.0000   0.0000   0.0000   0.0000   0.0000   0.0000   0.0000   0.0000
     0.0000   0.0000

          k =-0.8335 0.8335-0.9444 (  6478 PWs)   bands (ev):

   -57.2470 -57.2470 -33.3930 -33.3930 -31.3300 -31.3300 -31.1585 -31.1585
   -31.1524 -31.1524 -13.8891 -13.8891 -13.6552 -13.6552 -13.4462 -13.4462
   -10.1165 -10.1165  -9.3799  -9.3799  -9.2921  -9.2921  -9.1178  -9.1178
     2.5416   2.5416   2.8803   2.8803   2.8981   2.8981   3.7984   3.7984
     3.8777   3.8777   4.1825   4.1825   4.2186   4.2186   4.4589   4.4589
     5.2913   5.2913   5.4609   5.4609   5.5303   5.5303   5.7852   5.7852
     9.9605   9.9605  10.2364  10.2364  11.0525  11.0525  11.5206  11.5206
    12.1838  12.1838

     occupation numbers 
     1.0000   1.0000   1.0000   1.0000   1.0000   1.0000   1.0000   1.0000
     1.0000   1.0000   1.0000   1.0000   1.0000   1.0000   1.0000   1.0000
     1.0000   1.0000   1.0000   1.0000   1.0000   1.0000   1.0000   1.0000
     1.0000   1.0000   1.0000   1.0000   1.0000   1.0000   1.0000   1.0000
     1.0000   1.0000   1.0000   1.0000   1.0000   1.0000   1.0000   1.0000
     1.0000   1.0000   1.0000   1.0000   1.0000   1.0000   1.0000   1.0000
     0.0000   0.0000   0.0000   0.0000   0.0000   0.0000   0.0000   0.0000
     0.0000   0.0000

     the Fermi energy is     7.8968 ev

!    total energy              =    -800.02262358 Ry
     estimated scf accuracy    <          8.2E-10 Ry
     smearing contrib. (-TS)   =       0.00000000 Ry
     internal energy E=F+TS    =    -800.02262358 Ry

     The total energy is F=E-TS. E is the sum of the following terms:
     one-electron contribution =    -319.23410473 Ry
     hartree contribution      =     203.14219507 Ry
     xc contribution           =    -142.75741661 Ry
     ewald contribution        =    -465.02738398 Ry
     one-center paw contrib.   =     -76.14591333 Ry
      -> PAW hartree energy AE =      26.86406382 Ry
      -> PAW hartree energy PS =     -26.73822483 Ry
      -> PAW xc energy AE      =     -16.79105592 Ry
      -> PAW xc energy PS      =       7.14697776 Ry
      -> total E_H with PAW    =     203.26803406 Ry
      -> total E_XC with PAW   =    -152.40149476 Ry

     convergence has been achieved in  13 iterations

     negative rho (up, down):  9.011E-02 0.000E+00

     Forces acting on atoms (cartesian axes, Ry/au):

     atom    1 type  1   force =    -0.00000000   -0.00016029    0.00179991
     atom    2 type  1   force =    -0.00016029   -0.00000000    0.00179991
     atom    3 type  1   force =     0.00016029   -0.00000000    0.00179991
     atom    4 type  1   force =    -0.00000000    0.00016029    0.00179991
     atom    5 type  1   force =    -0.00016029   -0.00000000   -0.00179991
     atom    6 type  1   force =     0.00000000   -0.00016029   -0.00179991
     atom    7 type  1   force =     0.00000000    0.00016029   -0.00179991
     atom    8 type  1   force =     0.00016029    0.00000000   -0.00179991
     atom    9 type  2   force =    -0.00000000   -0.00000000    0.00000000
     atom   10 type  2   force =     0.00000000   -0.00000000   -0.00000000
     atom   11 type  3   force =     0.00000000   -0.00000000   -0.00000000
     atom   12 type  3   force =    -0.00000000   -0.00000000    0.00000000
     The non-local contrib.  to forces
     atom    1 type  1   force =     0.00000000   -0.52416022    0.30603045
     atom    2 type  1   force =    -0.52416022   -0.00000000    0.30603045
     atom    3 type  1   force =     0.52416022    0.00000000    0.30603045
     atom    4 type  1   force =     0.00000000    0.52416022    0.30603045
     atom    5 type  1   force =    -0.52416022   -0.00000000   -0.30603045
     atom    6 type  1   force =     0.00000000   -0.52416022   -0.30603045
     atom    7 type  1   force =     0.00000000    0.52416022   -0.30603045
     atom    8 type  1   force =     0.52416022   -0.00000000   -0.30603045
     atom    9 type  2   force =    -0.00000000   -0.00000000    0.00000000
     atom   10 type  2   force =    -0.00000000    0.00000000   -0.00000000
     atom   11 type  3   force =    -0.00000000    0.00000000   -0.00000000
     atom   12 type  3   force =    -0.00000000    0.00000000   -0.00000000
     The ionic contribution  to forces
     atom    1 type  1   force =    -0.00000000    7.41392514   -4.61754072
     atom    2 type  1   force =     7.41392514    0.00000000   -4.61754072
     atom    3 type  1   force =    -7.41392514    0.00000000   -4.61754072
     atom    4 type  1   force =     0.00000000   -7.41392514   -4.61754072
     atom    5 type  1   force =     7.41392514   -0.00000000    4.61754072
     atom    6 type  1   force =     0.00000000    7.41392514    4.61754072
     atom    7 type  1   force =    -0.00000000   -7.41392514    4.61754072
     atom    8 type  1   force =    -7.41392514   -0.00000000    4.61754072
     atom    9 type  2   force =     0.00000000    0.00000000    0.00000000
     atom   10 type  2   force =     0.00000000   -0.00000000    0.00000000
     atom   11 type  3   force =     0.00000000    0.00000000    0.00000000
     atom   12 type  3   force =    -0.00000000   -0.00000000   -0.00000000
     The local contribution  to forces
     atom    1 type  1   force =    -0.00000000   -6.89387939    4.31532079
     atom    2 type  1   force =    -6.89387939    0.00000000    4.31532079
     atom    3 type  1   force =     6.89387939   -0.00000000    4.31532079
     atom    4 type  1   force =     0.00000000    6.89387939    4.31532079
     atom    5 type  1   force =    -6.89387939    0.00000000   -4.31532079
     atom    6 type  1   force =    -0.00000000   -6.89387939   -4.31532079
     atom    7 type  1   force =    -0.00000000    6.89387939   -4.31532079
     atom    8 type  1   force =     6.89387939    0.00000000   -4.31532079
     atom    9 type  2   force =    -0.00000000    0.00000000    0.00000000
     atom   10 type  2   force =    -0.00000000   -0.00000000    0.00000000
     atom   11 type  3   force =    -0.00000000    0.00000000    0.00000000
     atom   12 type  3   force =     0.00000000    0.00000000    0.00000000
     The core correction contribution to forces
     atom    1 type  1   force =    -0.00000000    0.00395527   -0.00201344
     atom    2 type  1   force =     0.00395527   -0.00000000   -0.00201344
     atom    3 type  1   force =    -0.00395527   -0.00000000   -0.00201344
     atom    4 type  1   force =    -0.00000000   -0.00395527   -0.00201344
     atom    5 type  1   force =     0.00395527    0.00000000    0.00201344
     atom    6 type  1   force =    -0.00000000    0.00395527    0.00201344
     atom    7 type  1   force =     0.00000000   -0.00395527    0.00201344
     atom    8 type  1   force =    -0.00395527    0.00000000    0.00201344
     atom    9 type  2   force =    -0.00000000   -0.00000000   -0.00000000
     atom   10 type  2   force =     0.00000000   -0.00000000    0.00000000
     atom   11 type  3   force =    -0.00000000    0.00000000    0.00000000
     atom   12 type  3   force =     0.00000000   -0.00000000    0.00000000
     The Hubbard contrib.    to forces
     atom    1 type  1   force =     0.00000000    0.00000000    0.00000000
     atom    2 type  1   force =     0.00000000    0.00000000    0.00000000
     atom    3 type  1   force =     0.00000000    0.00000000    0.00000000
     atom    4 type  1   force =     0.00000000    0.00000000    0.00000000
     atom    5 type  1   force =     0.00000000    0.00000000    0.00000000
     atom    6 type  1   force =     0.00000000    0.00000000    0.00000000
     atom    7 type  1   force =     0.00000000    0.00000000    0.00000000
     atom    8 type  1   force =     0.00000000    0.00000000    0.00000000
     atom    9 type  2   force =     0.00000000    0.00000000    0.00000000
     atom   10 type  2   force =     0.00000000    0.00000000    0.00000000
     atom   11 type  3   force =     0.00000000    0.00000000    0.00000000
     atom   12 type  3   force =     0.00000000    0.00000000    0.00000000
     The SCF correction term to forces
     atom    1 type  1   force =     0.00000000   -0.00000108    0.00000283
     atom    2 type  1   force =    -0.00000108    0.00000000    0.00000283
     atom    3 type  1   force =     0.00000108   -0.00000000    0.00000283
     atom    4 type  1   force =     0.00000000    0.00000108    0.00000283
     atom    5 type  1   force =    -0.00000108    0.00000000   -0.00000283
     atom    6 type  1   force =     0.00000000   -0.00000108   -0.00000283
     atom    7 type  1   force =    -0.00000000    0.00000108   -0.00000283
     atom    8 type  1   force =     0.00000108   -0.00000000   -0.00000283
     atom    9 type  2   force =     0.00000000   -0.00000000    0.00000000
     atom   10 type  2   force =     0.00000000   -0.00000000   -0.00000000
     atom   11 type  3   force =    -0.00000000   -0.00000000   -0.00000000
     atom   12 type  3   force =     0.00000000   -0.00000000    0.00000000

     Total force =     0.005111     Total SCF correction =     0.000009


     Computing stress (Cartesian axis) and pressure


     negative rho (up, down):  9.011E-02 0.000E+00
          total   stress  (Ry/bohr**3)                   (kbar)     P=       20.90
   0.00015299   0.00000000  -0.00000000           22.51        0.00       -0.00
   0.00000000   0.00015299   0.00000000            0.00       22.51        0.00
   0.00000000  -0.00000000   0.00012028            0.00       -0.00       17.69

     kinetic stress (kbar)  22999.92     -0.00      0.00
                               -0.00  22999.92     -0.00
                                0.00     -0.00  22762.25

     local   stress (kbar)  -5363.47      0.00     -0.00
                                0.00  -5363.47     -0.00
                               -0.00     -0.00 -24515.22

     nonloc. stress (kbar)   6214.84     -0.00      0.00
                               -0.00   6214.84     -0.00
                                0.00     -0.00   6188.81

     hartree stress (kbar)   6797.65     -0.00     -0.00
                               -0.00   6797.65      0.00
                               -0.00      0.00  14035.75

     exc-cor stress (kbar)   -978.16     -0.00     -0.00
                               -0.00   -978.16      0.00
                               -0.00      0.00   -964.51

     corecor stress (kbar)  -4511.56      0.00      0.00
                                0.00  -4511.56      0.00
                                0.00      0.00  -4510.60

     ewald   stress (kbar) -25136.71      0.00     -0.00
                                0.00 -25136.71     -0.00
                               -0.00     -0.00 -12978.78

     hubbard stress (kbar)      0.00      0.00      0.00
                                0.00      0.00      0.00
                                0.00      0.00      0.00

     DFT-D   stress (kbar)      0.00      0.00      0.00
                                0.00      0.00      0.00
                                0.00      0.00      0.00

     XDM     stress (kbar)      0.00      0.00      0.00
                                0.00      0.00      0.00
                                0.00      0.00      0.00

     dft-nl  stress (kbar)      0.00      0.00      0.00
                                0.00      0.00      0.00
                                0.00      0.00      0.00

     TS-vdW  stress (kbar)      0.00      0.00      0.00
                                0.00      0.00      0.00
                                0.00      0.00      0.00

     MDB     stress (kbar)      0.00      0.00      0.00
                                0.00      0.00      0.00
                                0.00      0.00      0.00

     3D-RISM stress (kbar)      0.00      0.00      0.00
                                0.00      0.00      0.00
                                0.00      0.00      0.00


     BFGS Geometry Optimization
     Energy error            =      1.7E-03 Ry
     Gradient error          =      1.8E-03 Ry/Bohr
     Cell gradient error     =      2.3E+01 kbar

     number of scf cycles    =   1
     number of bfgs steps    =   0

     enthalpy           new  =    -800.0226235776 Ry

     new trust radius        =       0.0251562710 bohr
     new conv_thr            =       0.0000000024 Ry

     new unit-cell volume =   1093.07573 a.u.^3 (   161.97711 Ang^3 )
     density =      4.17951 g/cm^3

CELL_PARAMETERS (angstrom)
   3.580993124   3.580993124   3.157814998
  -3.580993124  -3.580993124   3.157814998
   3.580993124  -3.580993124  -3.157814998

ATOMIC_POSITIONS (crystal)
O                0.0756057449        0.3910114933        0.3154057485
O                0.5101999964        0.3256057449        0.1845942515
O                0.1410114933        0.3256057449        0.8154057485
O                0.0756057449        0.7601999964        0.6845942515
O                0.6089885067        0.9243942551        0.6845942515
O                0.6743942551        0.4898000036        0.8154057485
O                0.6743942551        0.8589885067        0.1845942515
O                0.2398000036        0.9243942551        0.3154057485
V                0.5000000000        0.5000000000        0.0000000000
V                0.2500000000        0.7500000000        0.5000000000
Y               -0.0000000000       -0.0000000000        0.0000000000
Y                0.7500000000        0.2500000000        0.5000000000



     Writing config-only to output data dir ./out/aiida.save/ :
     XML data file
     NEW-OLD atomic charge density approx. for the potential
     New effective cutoffs (rho, wfc):  397.50   49.70

     Check: negative core charge=   -0.000004

     negative rho (up, down):  9.013E-02 0.000E+00

     total cpu time spent up to now is       18.3 secs

     per-process dynamical memory:    41.1 Mb

     Self-consistent Calculation

     iteration #  1     ecut=    50.00 Ry     beta= 0.40
     Davidson diagonalization with overlap

---- Real-time Memory Report at c_bands before calling an iterative solver
           193 MiB given to the printing process from OS
            40 MiB allocation reported by mallinfo(arena+hblkhd)
        204046 MiB available memory on the node where the printing process lives
------------------
     ethr =  1.00E-06,  avg # of iterations =  4.0

     negative rho (up, down):  9.016E-02 0.000E+00

     total cpu time spent up to now is       19.7 secs

     total energy              =    -800.02365514 Ry
     estimated scf accuracy    <       0.00020319 Ry

     iteration #  2     ecut=    50.00 Ry     beta= 0.40
     Davidson diagonalization with overlap

---- Real-time Memory Report at c_bands before calling an iterative solver
           193 MiB given to the printing process from OS
            40 MiB allocation reported by mallinfo(arena+hblkhd)
        204008 MiB available memory on the node where the printing process lives
------------------
     ethr =  2.12E-07,  avg # of iterations =  2.9

     negative rho (up, down):  9.017E-02 0.000E+00

     total cpu time spent up to now is       20.9 secs

     total energy              =    -800.02366118 Ry
     estimated scf accuracy    <       0.00070006 Ry

     iteration #  3     ecut=    50.00 Ry     beta= 0.40
     Davidson diagonalization with overlap

---- Real-time Memory Report at c_bands before calling an iterative solver
           193 MiB given to the printing process from OS
            40 MiB allocation reported by mallinfo(arena+hblkhd)
        203973 MiB available memory on the node where the printing process lives
------------------
     ethr =  2.12E-07,  avg # of iterations =  1.7

     negative rho (up, down):  9.017E-02 0.000E+00

     total cpu time spent up to now is       22.0 secs

     total energy              =    -800.02367257 Ry
     estimated scf accuracy    <       0.00001433 Ry

     iteration #  4     ecut=    50.00 Ry     beta= 0.40
     Davidson diagonalization with overlap

---- Real-time Memory Report at c_bands before calling an iterative solver
           193 MiB given to the printing process from OS
            40 MiB allocation reported by mallinfo(arena+hblkhd)
        203965 MiB available memory on the node where the printing process lives
------------------
     ethr =  1.49E-08,  avg # of iterations =  2.2

     negative rho (up, down):  9.017E-02 0.000E+00

     total cpu time spent up to now is       23.0 secs

     total energy              =    -800.02365050 Ry
     estimated scf accuracy    <       0.00000687 Ry

     iteration #  5     ecut=    50.00 Ry     beta= 0.40
     Davidson diagonalization with overlap

---- Real-time Memory Report at c_bands before calling an iterative solver
           194 MiB given to the printing process from OS
            40 MiB allocation reported by mallinfo(arena+hblkhd)
        203942 MiB available memory on the node where the printing process lives
------------------
     ethr =  7.15E-09,  avg # of iterations =  2.0

     negative rho (up, down):  9.016E-02 0.000E+00

     total cpu time spent up to now is       24.0 secs

     total energy              =    -800.02365011 Ry
     estimated scf accuracy    <       0.00000076 Ry

     iteration #  6     ecut=    50.00 Ry     beta= 0.40
     Davidson diagonalization with overlap

---- Real-time Memory Report at c_bands before calling an iterative solver
           195 MiB given to the printing process from OS
            40 MiB allocation reported by mallinfo(arena+hblkhd)
        203978 MiB available memory on the node where the printing process lives
------------------
     ethr =  7.90E-10,  avg # of iterations =  2.0

     negative rho (up, down):  9.016E-02 0.000E+00

     total cpu time spent up to now is       25.3 secs

     total energy              =    -800.02365042 Ry
     estimated scf accuracy    <          9.3E-09 Ry

     iteration #  7     ecut=    50.00 Ry     beta= 0.40
     Davidson diagonalization with overlap

---- Real-time Memory Report at c_bands before calling an iterative solver
           195 MiB given to the printing process from OS
            40 MiB allocation reported by mallinfo(arena+hblkhd)
        203994 MiB available memory on the node where the printing process lives
------------------
     ethr =  9.73E-12,  avg # of iterations =  4.5

     negative rho (up, down):  9.016E-02 0.000E+00

     total cpu time spent up to now is       26.6 secs

     End of self-consistent calculation

          k = 0.0000 0.0000 0.0000 (  6481 PWs)   bands (ev):

   -57.3984 -57.3979 -33.5984 -33.5761 -31.4692 -31.4691 -31.3015 -31.3015
   -31.2969 -31.2969 -14.0254 -14.0254 -13.8852 -13.7567 -13.6434 -13.6434
   -10.5445  -9.9046  -9.5602  -9.5353  -9.5353  -9.2690  -9.2195  -9.2195
     2.1323   2.5252   2.7141   2.7769   3.0041   3.0041   3.3746   3.4470
     3.4470   3.6695   3.6695   3.7428   3.8827   4.4306   4.4982   4.6828
     4.9888   4.9888   5.7930   5.8188   5.8188   5.8263   5.8263   6.2188
     9.0916   9.7585   9.9741  10.0185  10.3511  11.4189  11.5275  11.5275
    11.9976  11.9976

     occupation numbers 
     1.0000   1.0000   1.0000   1.0000   1.0000   1.0000   1.0000   1.0000
     1.0000   1.0000   1.0000   1.0000   1.0000   1.0000   1.0000   1.0000
     1.0000   1.0000   1.0000   1.0000   1.0000   1.0000   1.0000   1.0000
     1.0000   1.0000   1.0000   1.0000   1.0000   1.0000   1.0000   1.0000
     1.0000   1.0000   1.0000   1.0000   1.0000   1.0000   1.0000   1.0000
     1.0000   1.0000   1.0000   1.0000   1.0000   1.0000   1.0000   1.0000
     0.0000   0.0000   0.0000   0.0000   0.0000   0.0000   0.0000   0.0000
     0.0000   0.0000

          k = 0.2076-0.2076 0.0000 (  6459 PWs)   bands (ev):

   -57.3983 -57.3979 -33.5951 -33.5794 -31.4692 -31.4692 -31.3008 -31.3008
   -31.2976 -31.2976 -14.0410 -13.9828 -13.8657 -13.7927 -13.7174 -13.6051
   -10.3422  -9.8661  -9.6941  -9.5925  -9.4649  -9.3977  -9.3138  -9.1120
     2.2658   2.5670   2.7230   2.7245   2.9153   3.1127   3.2360   3.3244
     3.3291   3.6083   3.7626   4.0736   4.1838   4.3630   4.5668   4.9027
     4.9855   5.1223   5.5232   5.5769   5.6418   5.7062   5.8456   6.0920
     9.3388   9.7649   9.8771  10.0859  10.4566  11.2513  11.2592  11.3958
    11.5034  11.7555

     occupation numbers 
     1.0000   1.0000   1.0000   1.0000   1.0000   1.0000   1.0000   1.0000
     1.0000   1.0000   1.0000   1.0000   1.0000   1.0000   1.0000   1.0000
     1.0000   1.0000   1.0000   1.0000   1.0000   1.0000   1.0000   1.0000
     1.0000   1.0000   1.0000   1.0000   1.0000   1.0000   1.0000   1.0000
     1.0000   1.0000   1.0000   1.0000   1.0000   1.0000   1.0000   1.0000
     1.0000   1.0000   1.0000   1.0000   1.0000   1.0000   1.0000   1.0000
     0.0000   0.0000   0.0000   0.0000   0.0000   0.0000   0.0000   0.0000
     0.0000   0.0000

          k =-0.4152 0.4152-0.0000 (  6470 PWs)   bands (ev):

   -57.3981 -57.3981 -33.5873 -33.5873 -31.4692 -31.4692 -31.2992 -31.2992
   -31.2991 -31.2991 -13.9925 -13.9925 -13.8650 -13.8650 -13.6569 -13.6569
    -9.9048  -9.9048  -9.6925  -9.6925  -9.6545  -9.6545  -9.1381  -9.1381
     2.5812   2.5812   2.7013   2.7013   2.7760   2.7760   3.2319   3.2319
     3.7334   3.7334   3.9274   3.9274   4.3352   4.3352   4.8135   4.8135
     5.2368   5.2368   5.3645   5.3645   5.4583   5.4583   5.8655   5.8655
     9.7454   9.7454   9.9087   9.9087  10.8222  10.8222  11.0541  11.0541
    11.3824  11.3824

     occupation numbers 
     1.0000   1.0000   1.0000   1.0000   1.0000   1.0000   1.0000   1.0000
     1.0000   1.0000   1.0000   1.0000   1.0000   1.0000   1.0000   1.0000
     1.0000   1.0000   1.0000   1.0000   1.0000   1.0000   1.0000   1.0000
     1.0000   1.0000   1.0000   1.0000   1.0000   1.0000   1.0000   1.0000
     1.0000   1.0000   1.0000   1.0000   1.0000   1.0000   1.0000   1.0000
     1.0000   1.0000   1.0000   1.0000   1.0000   1.0000   1.0000   1.0000
     0.0000   0.0000   0.0000   0.0000   0.0000   0.0000   0.0000   0.0000
     0.0000   0.0000

          k =-0.0000-0.2076 0.2354 (  6469 PWs)   bands (ev):

   -57.3983 -57.3979 -33.5969 -33.5791 -31.4681 -31.4678 -31.3016 -31.3008
   -31.2976 -31.2968 -14.0319 -14.0300 -13.8695 -13.8228 -13.6461 -13.6388
   -10.3085  -9.8418  -9.6660  -9.5230  -9.4891  -9.4163  -9.2593  -9.2293
     2.2937   2.5738   2.7746   2.8510   2.9303   3.2065   3.2107   3.2277
     3.3984   3.5761   3.9695   4.0407   4.1311   4.3843   4.4278   4.5559
     4.8498   4.9453   5.4218   5.4487   5.6801   5.8169   5.9618   6.1691
     9.4136   9.8067   9.9444   9.9988  10.6423  11.0858  11.3977  11.4926
    11.7284  11.8505

     occupation numbers 
     1.0000   1.0000   1.0000   1.0000   1.0000   1.0000   1.0000   1.0000
     1.0000   1.0000   1.0000   1.0000   1.0000   1.0000   1.0000   1.0000
     1.0000   1.0000   1.0000   1.0000   1.0000   1.0000   1.0000   1.0000
     1.0000   1.0000   1.0000   1.0000   1.0000   1.0000   1.0000   1.0000
     1.0000   1.0000   1.0000   1.0000   1.0000   1.0000   1.0000   1.0000
     1.0000   1.0000   1.0000   1.0000   1.0000   1.0000   1.0000   1.0000
     0.0000   0.0000   0.0000   0.0000   0.0000   0.0000   0.0000   0.0000
     0.0000   0.0000

          k = 0.2076-0.4152 0.2354 (  6457 PWs)   bands (ev):

   -57.3982 -57.3980 -33.5920 -33.5840 -31.4681 -31.4678 -31.3010 -31.2994
   -31.2989 -31.2974 -14.0507 -13.9696 -13.9341 -13.7683 -13.7148 -13.6226
   -10.0507  -9.7774  -9.6881  -9.6696  -9.5946  -9.4480  -9.3061  -9.1976
     2.4237   2.5815   2.6261   2.6741   2.7998   3.0571   3.3172   3.6034
     3.6405   3.6978   4.0035   4.1481   4.2276   4.2568   4.3994   4.7432
     4.9230   5.1801   5.2358   5.2586   5.4816   5.6964   5.7715   5.9777
     9.7146   9.8300   9.8746  10.0347  10.6581  10.8984  11.1934  11.2833
    11.4567  11.5882

     occupation numbers 
     1.0000   1.0000   1.0000   1.0000   1.0000   1.0000   1.0000   1.0000
     1.0000   1.0000   1.0000   1.0000   1.0000   1.0000   1.0000   1.0000
     1.0000   1.0000   1.0000   1.0000   1.0000   1.0000   1.0000   1.0000
     1.0000   1.0000   1.0000   1.0000   1.0000   1.0000   1.0000   1.0000
     1.0000   1.0000   1.0000   1.0000   1.0000   1.0000   1.0000   1.0000
     1.0000   1.0000   1.0000   1.0000   1.0000   1.0000   1.0000   1.0000
     0.0000   0.0000   0.0000   0.0000   0.0000   0.0000   0.0000   0.0000
     0.0000   0.0000

          k = 0.0000 0.4152-0.4708 (  6478 PWs)   bands (ev):

   -57.3982 -57.3980 -33.5945 -33.5829 -31.4671 -31.4664 -31.3018 -31.2995
   -31.2989 -31.2967 -14.0382 -14.0192 -13.9611 -13.7411 -13.6999 -13.6345
   -10.0102  -9.6979  -9.6912  -9.6629  -9.5097  -9.4609  -9.4097  -9.2401
     2.3983   2.5129   2.7589   2.9535   2.9974   3.0743   3.1583   3.3520
     3.6002   3.8745   3.9226   4.0594   4.2514   4.3255   4.4592   4.6162
     4.6986   5.0949   5.1521   5.1872   5.3715   5.4815   6.0605   6.0696
     9.8017   9.8964   9.8996   9.9338  10.6980  10.9629  11.4091  11.4447
    11.4962  11.6375

     occupation numbers 
     1.0000   1.0000   1.0000   1.0000   1.0000   1.0000   1.0000   1.0000
     1.0000   1.0000   1.0000   1.0000   1.0000   1.0000   1.0000   1.0000
     1.0000   1.0000   1.0000   1.0000   1.0000   1.0000   1.0000   1.0000
     1.0000   1.0000   1.0000   1.0000   1.0000   1.0000   1.0000   1.0000
     1.0000   1.0000   1.0000   1.0000   1.0000   1.0000   1.0000   1.0000
     1.0000   1.0000   1.0000   1.0000   1.0000   1.0000   1.0000   1.0000
     0.0000   0.0000   0.0000   0.0000   0.0000   0.0000   0.0000   0.0000
     0.0000   0.0000

          k = 0.2076 0.2076-0.4708 (  6453 PWs)   bands (ev):

   -57.3982 -57.3980 -33.5945 -33.5829 -31.4671 -31.4664 -31.3010 -31.3010
   -31.2974 -31.2974 -14.0739 -14.0006 -13.8894 -13.8307 -13.6836 -13.6157
    -9.9441  -9.8714  -9.6754  -9.5779  -9.5001  -9.4774  -9.3371  -9.2992
     2.4734   2.5435   2.6319   2.7435   2.9331   3.2707   3.3714   3.5153
     3.5720   3.6800   3.8971   4.1206   4.1617   4.2622   4.5325   4.6520
     4.6753   4.8138   5.1661   5.1786   5.5459   5.8150   5.8169   6.0647
     9.8233   9.8918   9.9048   9.9176  10.6891  11.0095  11.3057  11.3523
    11.5924  11.6870

     occupation numbers 
     1.0000   1.0000   1.0000   1.0000   1.0000   1.0000   1.0000   1.0000
     1.0000   1.0000   1.0000   1.0000   1.0000   1.0000   1.0000   1.0000
     1.0000   1.0000   1.0000   1.0000   1.0000   1.0000   1.0000   1.0000
     1.0000   1.0000   1.0000   1.0000   1.0000   1.0000   1.0000   1.0000
     1.0000   1.0000   1.0000   1.0000   1.0000   1.0000   1.0000   1.0000
     1.0000   1.0000   1.0000   1.0000   1.0000   1.0000   1.0000   1.0000
     0.0000   0.0000   0.0000   0.0000   0.0000   0.0000   0.0000   0.0000
     0.0000   0.0000

          k = 0.4152-0.4152 0.4708 (  6444 PWs)   bands (ev):

   -57.3981 -57.3981 -33.5888 -33.5888 -31.4668 -31.4668 -31.2992 -31.2992
   -31.2991 -31.2991 -14.0416 -14.0416 -13.8490 -13.8490 -13.6629 -13.6629
    -9.7244  -9.7244  -9.6563  -9.6563  -9.5799  -9.5799  -9.3818  -9.3818
     2.4082   2.4082   2.5346   2.5346   3.1310   3.1310   3.6232   3.6232
     3.9057   3.9057   4.0671   4.0671   4.1520   4.1520   4.4340   4.4340
     5.0286   5.0286   5.2049   5.2049   5.3659   5.3659   5.9121   5.9121
     9.9064   9.9064   9.9383   9.9383  10.7623  10.7623  10.9618  10.9618
    11.6159  11.6159

     occupation numbers 
     1.0000   1.0000   1.0000   1.0000   1.0000   1.0000   1.0000   1.0000
     1.0000   1.0000   1.0000   1.0000   1.0000   1.0000   1.0000   1.0000
     1.0000   1.0000   1.0000   1.0000   1.0000   1.0000   1.0000   1.0000
     1.0000   1.0000   1.0000   1.0000   1.0000   1.0000   1.0000   1.0000
     1.0000   1.0000   1.0000   1.0000   1.0000   1.0000   1.0000   1.0000
     1.0000   1.0000   1.0000   1.0000   1.0000   1.0000   1.0000   1.0000
     0.0000   0.0000   0.0000   0.0000   0.0000   0.0000   0.0000   0.0000
     0.0000   0.0000

          k = 0.0000 0.0000 0.4708 (  6449 PWs)   bands (ev):

   -57.3983 -57.3979 -33.5969 -33.5805 -31.4672 -31.4662 -31.3018 -31.3018
   -31.2967 -31.2967 -14.0384 -14.0384 -13.9256 -13.8099 -13.6342 -13.6342
   -10.0480  -9.9713  -9.6743  -9.5108  -9.5108  -9.4880  -9.2387  -9.2387
     2.6094   2.6921   2.9835   2.9835   2.9912   3.1306   3.1716   3.1716
     3.2452   3.2715   3.9899   4.0211   4.3019   4.4534   4.4534   4.4664
     4.6746   4.6746   5.2571   5.3430   5.3430   6.0192   6.0192   6.0845
     9.7687   9.8578   9.8761   9.9339  10.7635  11.0818  11.6164  11.6164
    11.7962  11.7962

     occupation numbers 
     1.0000   1.0000   1.0000   1.0000   1.0000   1.0000   1.0000   1.0000
     1.0000   1.0000   1.0000   1.0000   1.0000   1.0000   1.0000   1.0000
     1.0000   1.0000   1.0000   1.0000   1.0000   1.0000   1.0000   1.0000
     1.0000   1.0000   1.0000   1.0000   1.0000   1.0000   1.0000   1.0000
     1.0000   1.0000   1.0000   1.0000   1.0000   1.0000   1.0000   1.0000
     1.0000   1.0000   1.0000   1.0000   1.0000   1.0000   1.0000   1.0000
     0.0000   0.0000   0.0000   0.0000   0.0000   0.0000   0.0000   0.0000
     0.0000   0.0000

          k =-0.2076 0.8303-0.2354 (  6455 PWs)   bands (ev):

   -57.3982 -57.3980 -33.5922 -33.5838 -31.4683 -31.4675 -31.3020 -31.3013
   -31.2972 -31.2965 -14.0420 -14.0347 -13.8879 -13.8044 -13.6484 -13.6306
   -10.1267  -9.9744  -9.6887  -9.5150  -9.5038  -9.4220  -9.2527  -9.2483
     2.5091   2.5569   2.6848   2.8422   2.9076   3.0055   3.3130   3.3342
     3.7800   3.8212   4.0193   4.0642   4.0821   4.2006   4.2437   4.8230
     4.8264   5.0403   5.2637   5.3120   5.3617   5.7080   5.7494   5.9285
     9.8234   9.8647   9.8687  10.0585  10.5980  11.1488  11.3501  11.4120
    11.6538  11.8198

     occupation numbers 
     1.0000   1.0000   1.0000   1.0000   1.0000   1.0000   1.0000   1.0000
     1.0000   1.0000   1.0000   1.0000   1.0000   1.0000   1.0000   1.0000
     1.0000   1.0000   1.0000   1.0000   1.0000   1.0000   1.0000   1.0000
     1.0000   1.0000   1.0000   1.0000   1.0000   1.0000   1.0000   1.0000
     1.0000   1.0000   1.0000   1.0000   1.0000   1.0000   1.0000   1.0000
     1.0000   1.0000   1.0000   1.0000   1.0000   1.0000   1.0000   1.0000
     0.0000   0.0000   0.0000   0.0000   0.0000   0.0000   0.0000   0.0000
     0.0000   0.0000

          k = 0.4152 0.0000-0.0000 (  6437 PWs)   bands (ev):

   -57.3982 -57.3980 -33.5928 -33.5817 -31.4692 -31.4692 -31.3018 -31.2995
   -31.2989 -31.2966 -14.0356 -13.9615 -13.9486 -13.7302 -13.6983 -13.6351
   -10.2747  -9.8887  -9.6966  -9.6611  -9.5165  -9.2935  -9.2383  -9.2130
     2.3629   2.5586   2.7093   2.7508   2.7923   2.9853   3.4320   3.4447
     3.4892   3.5828   3.6711   4.0674   4.3026   4.3247   4.6316   5.0395
     5.0443   5.0684   5.2377   5.4902   5.5663   5.6119   5.7796   5.9502
     9.5575   9.7571   9.8375  10.1219  10.5901  11.1136  11.2709  11.3718
    11.3830  11.7979

     occupation numbers 
     1.0000   1.0000   1.0000   1.0000   1.0000   1.0000   1.0000   1.0000
     1.0000   1.0000   1.0000   1.0000   1.0000   1.0000   1.0000   1.0000
     1.0000   1.0000   1.0000   1.0000   1.0000   1.0000   1.0000   1.0000
     1.0000   1.0000   1.0000   1.0000   1.0000   1.0000   1.0000   1.0000
     1.0000   1.0000   1.0000   1.0000   1.0000   1.0000   1.0000   1.0000
     1.0000   1.0000   1.0000   1.0000   1.0000   1.0000   1.0000   1.0000
     0.0000   0.0000   0.0000   0.0000   0.0000   0.0000   0.0000   0.0000
     0.0000   0.0000

          k =-0.2076 0.6227 0.0000 (  6448 PWs)   bands (ev):

   -57.3981 -57.3981 -33.5873 -33.5873 -31.4692 -31.4692 -31.3013 -31.3013
   -31.2971 -31.2971 -14.0255 -14.0255 -13.8356 -13.8356 -13.6458 -13.6458
   -10.0996 -10.0996  -9.6213  -9.6213  -9.4730  -9.4730  -9.1969  -9.1969
     2.5243   2.5243   2.7143   2.7143   2.7989   2.7989   3.4238   3.4238
     3.7530   3.7530   3.9753   3.9753   4.2454   4.2454   4.6291   4.6291
     5.1948   5.1948   5.3892   5.3892   5.4679   5.4679   5.7119   5.7119
     9.7749   9.7749   9.9753   9.9753  10.8502  10.8502  11.1808  11.1808
    11.6763  11.6763

     occupation numbers 
     1.0000   1.0000   1.0000   1.0000   1.0000   1.0000   1.0000   1.0000
     1.0000   1.0000   1.0000   1.0000   1.0000   1.0000   1.0000   1.0000
     1.0000   1.0000   1.0000   1.0000   1.0000   1.0000   1.0000   1.0000
     1.0000   1.0000   1.0000   1.0000   1.0000   1.0000   1.0000   1.0000
     1.0000   1.0000   1.0000   1.0000   1.0000   1.0000   1.0000   1.0000
     1.0000   1.0000   1.0000   1.0000   1.0000   1.0000   1.0000   1.0000
     0.0000   0.0000   0.0000   0.0000   0.0000   0.0000   0.0000   0.0000
     0.0000   0.0000

          k =-0.8303 0.8303-0.9416 (  6478 PWs)   bands (ev):

   -57.3981 -57.3981 -33.5873 -33.5873 -31.4691 -31.4691 -31.3022 -31.3022
   -31.2963 -31.2963 -14.0458 -14.0458 -13.8264 -13.8264 -13.6269 -13.6269
   -10.2176 -10.2176  -9.4975  -9.4975  -9.4199  -9.4199  -9.2569  -9.2569
     2.4545   2.4545   2.7840   2.7840   2.7980   2.7980   3.6861   3.6861
     3.7789   3.7789   4.0844   4.0844   4.1004   4.1004   4.3414   4.3414
     5.1909   5.1909   5.3446   5.3446   5.4158   5.4158   5.6615   5.6615
     9.7934   9.7934  10.0687  10.0687  10.8774  10.8774  11.3358  11.3358
    11.9832  11.9832

     occupation numbers 
     1.0000   1.0000   1.0000   1.0000   1.0000   1.0000   1.0000   1.0000
     1.0000   1.0000   1.0000   1.0000   1.0000   1.0000   1.0000   1.0000
     1.0000   1.0000   1.0000   1.0000   1.0000   1.0000   1.0000   1.0000
     1.0000   1.0000   1.0000   1.0000   1.0000   1.0000   1.0000   1.0000
     1.0000   1.0000   1.0000   1.0000   1.0000   1.0000   1.0000   1.0000
     1.0000   1.0000   1.0000   1.0000   1.0000   1.0000   1.0000   1.0000
     0.0000   0.0000   0.0000   0.0000   0.0000   0.0000   0.0000   0.0000
     0.0000   0.0000

     the Fermi energy is     7.7026 ev

!    total energy              =    -800.02365046 Ry
     estimated scf accuracy    <          7.1E-10 Ry
     smearing contrib. (-TS)   =       0.00000000 Ry
     internal energy E=F+TS    =    -800.02365046 Ry

     The total energy is F=E-TS. E is the sum of the following terms:
     one-electron contribution =    -321.93110192 Ry
     hartree contribution      =     203.99070139 Ry
     xc contribution           =    -142.67859960 Ry
     ewald contribution        =    -463.25723036 Ry
     one-center paw contrib.   =     -76.14741997 Ry
      -> PAW hartree energy AE =      26.80061182 Ry
      -> PAW hartree energy PS =     -26.67511761 Ry
      -> PAW xc energy AE      =     -16.78089068 Ry
      -> PAW xc energy PS      =       7.13696897 Ry
      -> total E_H with PAW    =     204.11619561 Ry
      -> total E_XC with PAW   =    -152.32252131 Ry

     convergence has been achieved in   7 iterations

     negative rho (up, down):  9.016E-02 0.000E+00

     Forces acting on atoms (cartesian axes, Ry/au):

     atom    1 type  1   force =    -0.00000000   -0.00421843    0.00411882
     atom    2 type  1   force =    -0.00421843    0.00000000    0.00411882
     atom    3 type  1   force =     0.00421843    0.00000000    0.00411882
     atom    4 type  1   force =     0.00000000    0.00421843    0.00411882
     atom    5 type  1   force =    -0.00421843   -0.00000000   -0.00411882
     atom    6 type  1   force =    -0.00000000   -0.00421843   -0.00411882
     atom    7 type  1   force =     0.00000000    0.00421843   -0.00411882
     atom    8 type  1   force =     0.00421843   -0.00000000   -0.00411882
     atom    9 type  2   force =     0.00000000    0.00000000   -0.00000000
     atom   10 type  2   force =    -0.00000000    0.00000000    0.00000000
     atom   11 type  3   force =    -0.00000000    0.00000000    0.00000000
     atom   12 type  3   force =     0.00000000   -0.00000000    0.00000000
     The non-local contrib.  to forces
     atom    1 type  1   force =    -0.00000000   -0.52546017    0.30457619
     atom    2 type  1   force =    -0.52546017    0.00000000    0.30457619
     atom    3 type  1   force =     0.52546017   -0.00000000    0.30457619
     atom    4 type  1   force =    -0.00000000    0.52546017    0.30457619
     atom    5 type  1   force =    -0.52546017    0.00000000   -0.30457619
     atom    6 type  1   force =     0.00000000   -0.52546017   -0.30457619
     atom    7 type  1   force =    -0.00000000    0.52546017   -0.30457619
     atom    8 type  1   force =     0.52546017    0.00000000   -0.30457619
     atom    9 type  2   force =     0.00000000   -0.00000000   -0.00000000
     atom   10 type  2   force =    -0.00000000    0.00000000    0.00000000
     atom   11 type  3   force =     0.00000000    0.00000000   -0.00000000
     atom   12 type  3   force =    -0.00000000   -0.00000000    0.00000000
     The ionic contribution  to forces
     atom    1 type  1   force =    -0.00000000    7.38700793   -4.59601025
     atom    2 type  1   force =     7.38700793    0.00000000   -4.59601025
     atom    3 type  1   force =    -7.38700793    0.00000000   -4.59601025
     atom    4 type  1   force =     0.00000000   -7.38700793   -4.59601025
     atom    5 type  1   force =     7.38700793   -0.00000000    4.59601025
     atom    6 type  1   force =    -0.00000000    7.38700793    4.59601025
     atom    7 type  1   force =     0.00000000   -7.38700793    4.59601025
     atom    8 type  1   force =    -7.38700793    0.00000000    4.59601025
     atom    9 type  2   force =    -0.00000000    0.00000000    0.00000000
     atom   10 type  2   force =     0.00000000    0.00000000   -0.00000000
     atom   11 type  3   force =    -0.00000000    0.00000000   -0.00000000
     atom   12 type  3   force =    -0.00000000    0.00000000   -0.00000000
     The local contribution  to forces
     atom    1 type  1   force =     0.00000000   -6.86977105    4.29758764
     atom    2 type  1   force =    -6.86977105    0.00000000    4.29758764
     atom    3 type  1   force =     6.86977105   -0.00000000    4.29758764
     atom    4 type  1   force =     0.00000000    6.86977105    4.29758764
     atom    5 type  1   force =    -6.86977105   -0.00000000   -4.29758764
     atom    6 type  1   force =     0.00000000   -6.86977105   -4.29758764
     atom    7 type  1   force =    -0.00000000    6.86977105   -4.29758764
[...]
     4.6115   4.6115   5.1929   5.2657   5.2657   5.9382   5.9382   6.0210
     9.7233   9.8159   9.8249   9.8814  10.7213  11.0565  11.5694  11.5694
    11.7442  11.7442

     occupation numbers 
     1.0000   1.0000   1.0000   1.0000   1.0000   1.0000   1.0000   1.0000
     1.0000   1.0000   1.0000   1.0000   1.0000   1.0000   1.0000   1.0000
     1.0000   1.0000   1.0000   1.0000   1.0000   1.0000   1.0000   1.0000
     1.0000   1.0000   1.0000   1.0000   1.0000   1.0000   1.0000   1.0000
     1.0000   1.0000   1.0000   1.0000   1.0000   1.0000   1.0000   1.0000
     1.0000   1.0000   1.0000   1.0000   1.0000   1.0000   1.0000   1.0000
     0.0000   0.0000   0.0000   0.0000   0.0000   0.0000   0.0000   0.0000
     0.0000   0.0000

          k =-0.2069 0.8275-0.2356 (  6569 PWs)   bands (ev):

   -57.4526 -57.4524 -33.7294 -33.7215 -31.5270 -31.5262 -31.3591 -31.3584
   -31.3544 -31.3538 -14.1455 -14.1405 -14.0062 -13.9269 -13.7712 -13.7518
   -10.1911 -10.0424  -9.7564  -9.5866  -9.5802  -9.5009  -9.3408  -9.3373
     2.4433   2.5004   2.6286   2.7678   2.8337   2.9376   3.2469   3.2638
     3.7086   3.7494   3.9552   3.9966   4.0099   4.1292   4.1793   4.7500
     4.7657   4.9782   5.1875   5.2380   5.2961   5.6330   5.6906   5.8520
     9.7729   9.8178   9.8195  10.0149  10.5590  11.1170  11.3039  11.3617
    11.6015  11.7646

     occupation numbers 
     1.0000   1.0000   1.0000   1.0000   1.0000   1.0000   1.0000   1.0000
     1.0000   1.0000   1.0000   1.0000   1.0000   1.0000   1.0000   1.0000
     1.0000   1.0000   1.0000   1.0000   1.0000   1.0000   1.0000   1.0000
     1.0000   1.0000   1.0000   1.0000   1.0000   1.0000   1.0000   1.0000
     1.0000   1.0000   1.0000   1.0000   1.0000   1.0000   1.0000   1.0000
     1.0000   1.0000   1.0000   1.0000   1.0000   1.0000   1.0000   1.0000
     0.0000   0.0000   0.0000   0.0000   0.0000   0.0000   0.0000   0.0000
     0.0000   0.0000

          k = 0.4137-0.0000 0.0000 (  6579 PWs)   bands (ev):

   -57.4526 -57.4524 -33.7301 -33.7195 -31.5278 -31.5278 -31.3589 -31.3567
   -31.3561 -31.3539 -14.1394 -14.0733 -14.0592 -13.8518 -13.8238 -13.7560
   -10.3417  -9.9658  -9.7602  -9.7257  -9.5927  -9.3736  -9.3311  -9.2950
     2.2957   2.5012   2.6484   2.6810   2.7305   2.9067   3.3657   3.3827
     3.4212   3.5274   3.5954   4.0020   4.2191   4.2521   4.5576   4.9704
     4.9758   4.9906   5.1709   5.4299   5.4950   5.5439   5.7035   5.8821
     9.5080   9.7078   9.7917  10.0804  10.5554  11.0722  11.2210  11.3264
    11.3338  11.7372

     occupation numbers 
     1.0000   1.0000   1.0000   1.0000   1.0000   1.0000   1.0000   1.0000
     1.0000   1.0000   1.0000   1.0000   1.0000   1.0000   1.0000   1.0000
     1.0000   1.0000   1.0000   1.0000   1.0000   1.0000   1.0000   1.0000
     1.0000   1.0000   1.0000   1.0000   1.0000   1.0000   1.0000   1.0000
     1.0000   1.0000   1.0000   1.0000   1.0000   1.0000   1.0000   1.0000
     1.0000   1.0000   1.0000   1.0000   1.0000   1.0000   1.0000   1.0000
     0.0000   0.0000   0.0000   0.0000   0.0000   0.0000   0.0000   0.0000
     0.0000   0.0000

          k =-0.2069 0.6206-0.0000 (  6564 PWs)   bands (ev):

   -57.4525 -57.4525 -33.7248 -33.7248 -31.5278 -31.5278 -31.3584 -31.3584
   -31.3544 -31.3544 -14.1311 -14.1311 -13.9539 -13.9539 -13.7689 -13.7689
   -10.1692 -10.1692  -9.6889  -9.6889  -9.5509  -9.5509  -9.2836  -9.2836
     2.4640   2.4640   2.6438   2.6438   2.7316   2.7316   3.3563   3.3563
     3.6900   3.6900   3.8981   3.8981   4.1765   4.1765   4.5554   4.5554
     5.1323   5.1323   5.3175   5.3175   5.4013   5.4013   5.6421   5.6421
     9.7270   9.7270   9.9285   9.9285  10.8143  10.8143  11.1293  11.1293
    11.6245  11.6245

     occupation numbers 
     1.0000   1.0000   1.0000   1.0000   1.0000   1.0000   1.0000   1.0000
     1.0000   1.0000   1.0000   1.0000   1.0000   1.0000   1.0000   1.0000
     1.0000   1.0000   1.0000   1.0000   1.0000   1.0000   1.0000   1.0000
     1.0000   1.0000   1.0000   1.0000   1.0000   1.0000   1.0000   1.0000
     1.0000   1.0000   1.0000   1.0000   1.0000   1.0000   1.0000   1.0000
     1.0000   1.0000   1.0000   1.0000   1.0000   1.0000   1.0000   1.0000
     0.0000   0.0000   0.0000   0.0000   0.0000   0.0000   0.0000   0.0000
     0.0000   0.0000

          k =-0.8275 0.8275-0.9422 (  6614 PWs)   bands (ev):

   -57.4525 -57.4525 -33.7248 -33.7248 -31.5278 -31.5278 -31.3593 -31.3593
   -31.3536 -31.3536 -14.1491 -14.1491 -13.9493 -13.9493 -13.7482 -13.7482
   -10.2809 -10.2809  -9.5741  -9.5741  -9.4893  -9.4893  -9.3493  -9.3493
     2.4004   2.4004   2.7069   2.7069   2.7268   2.7268   3.6094   3.6094
     3.7242   3.7242   4.0032   4.0032   4.0420   4.0420   4.2641   4.2641
     5.1436   5.1436   5.2705   5.2705   5.3548   5.3548   5.5812   5.5812
     9.7455   9.7455  10.0217  10.0217  10.8426  10.8426  11.2867  11.2867
    11.9304  11.9304

     occupation numbers 
     1.0000   1.0000   1.0000   1.0000   1.0000   1.0000   1.0000   1.0000
     1.0000   1.0000   1.0000   1.0000   1.0000   1.0000   1.0000   1.0000
     1.0000   1.0000   1.0000   1.0000   1.0000   1.0000   1.0000   1.0000
     1.0000   1.0000   1.0000   1.0000   1.0000   1.0000   1.0000   1.0000
     1.0000   1.0000   1.0000   1.0000   1.0000   1.0000   1.0000   1.0000
     1.0000   1.0000   1.0000   1.0000   1.0000   1.0000   1.0000   1.0000
     0.0000   0.0000   0.0000   0.0000   0.0000   0.0000   0.0000   0.0000
     0.0000   0.0000

     the Fermi energy is     7.6503 ev

!    total energy              =    -800.02410480 Ry
     estimated scf accuracy    <          1.0E-11 Ry
     smearing contrib. (-TS)   =       0.00000000 Ry
     internal energy E=F+TS    =    -800.02410480 Ry

     The total energy is F=E-TS. E is the sum of the following terms:
     one-electron contribution =    -325.13678016 Ry
     hartree contribution      =     205.31138454 Ry
     xc contribution           =    -142.66016795 Ry
     ewald contribution        =    -461.39105105 Ry
     one-center paw contrib.   =     -76.14749019 Ry
      -> PAW hartree energy AE =      26.79132796 Ry
      -> PAW hartree energy PS =     -26.66587528 Ry
      -> PAW xc energy AE      =     -16.77938199 Ry
      -> PAW xc energy PS      =       7.13549304 Ry
      -> total E_H with PAW    =     205.43683722 Ry
      -> total E_XC with PAW   =    -152.30405690 Ry

     convergence has been achieved in  16 iterations

     negative rho (up, down):  9.015E-02 0.000E+00

     Forces acting on atoms (cartesian axes, Ry/au):

     atom    1 type  1   force =     0.00000000   -0.00007335    0.00002736
     atom    2 type  1   force =    -0.00007335   -0.00000000    0.00002736
     atom    3 type  1   force =     0.00007335    0.00000000    0.00002736
     atom    4 type  1   force =    -0.00000000    0.00007335    0.00002736
     atom    5 type  1   force =    -0.00007335   -0.00000000   -0.00002736
     atom    6 type  1   force =    -0.00000000   -0.00007335   -0.00002736
     atom    7 type  1   force =     0.00000000    0.00007335   -0.00002736
     atom    8 type  1   force =     0.00007335   -0.00000000   -0.00002736
     atom    9 type  2   force =     0.00000000    0.00000000   -0.00000000
     atom   10 type  2   force =    -0.00000000    0.00000000    0.00000000
     atom   11 type  3   force =    -0.00000000   -0.00000000    0.00000000
     atom   12 type  3   force =     0.00000000    0.00000000    0.00000000
     The non-local contrib.  to forces
     atom    1 type  1   force =     0.00000000   -0.52655108    0.29693616
     atom    2 type  1   force =    -0.52655108    0.00000000    0.29693616
     atom    3 type  1   force =     0.52655108    0.00000000    0.29693616
     atom    4 type  1   force =     0.00000000    0.52655108    0.29693616
     atom    5 type  1   force =    -0.52655108   -0.00000000   -0.29693616
     atom    6 type  1   force =     0.00000000   -0.52655108   -0.29693616
     atom    7 type  1   force =     0.00000000    0.52655108   -0.29693616
     atom    8 type  1   force =     0.52655108    0.00000000   -0.29693616
     atom    9 type  2   force =    -0.00000000    0.00000000   -0.00000000
     atom   10 type  2   force =     0.00000000    0.00000000    0.00000000
     atom   11 type  3   force =     0.00000000   -0.00000000   -0.00000000
     atom   12 type  3   force =     0.00000000    0.00000000    0.00000000
     The ionic contribution  to forces
     atom    1 type  1   force =     0.00000000    7.53405037   -4.66580471
     atom    2 type  1   force =     7.53405037    0.00000000   -4.66580471
     atom    3 type  1   force =    -7.53405037    0.00000000   -4.66580471
     atom    4 type  1   force =    -0.00000000   -7.53405037   -4.66580471
     atom    5 type  1   force =     7.53405037   -0.00000000    4.66580471
     atom    6 type  1   force =     0.00000000    7.53405037    4.66580471
     atom    7 type  1   force =     0.00000000   -7.53405037    4.66580471
     atom    8 type  1   force =    -7.53405037   -0.00000000    4.66580471
     atom    9 type  2   force =    -0.00000000    0.00000000    0.00000000
     atom   10 type  2   force =    -0.00000000   -0.00000000    0.00000000
     atom   11 type  3   force =     0.00000000    0.00000000   -0.00000000
     atom   12 type  3   force =    -0.00000000   -0.00000000   -0.00000000
     The local contribution  to forces
     atom    1 type  1   force =    -0.00000000   -7.01153193    4.37080983
     atom    2 type  1   force =    -7.01153193    0.00000000    4.37080983
     atom    3 type  1   force =     7.01153193   -0.00000000    4.37080983
     atom    4 type  1   force =     0.00000000    7.01153193    4.37080983
     atom    5 type  1   force =    -7.01153193   -0.00000000   -4.37080983
     atom    6 type  1   force =    -0.00000000   -7.01153193   -4.37080983
     atom    7 type  1   force =    -0.00000000    7.01153193   -4.37080983
     atom    8 type  1   force =     7.01153193    0.00000000   -4.37080983
     atom    9 type  2   force =    -0.00000000    0.00000000    0.00000000
     atom   10 type  2   force =    -0.00000000   -0.00000000   -0.00000000
     atom   11 type  3   force =    -0.00000000   -0.00000000    0.00000000
     atom   12 type  3   force =     0.00000000   -0.00000000   -0.00000000
     The core correction contribution to forces
     atom    1 type  1   force =    -0.00000000    0.00395853   -0.00191283
     atom    2 type  1   force =     0.00395853    0.00000000   -0.00191283
     atom    3 type  1   force =    -0.00395853   -0.00000000   -0.00191283
     atom    4 type  1   force =     0.00000000   -0.00395853   -0.00191283
     atom    5 type  1   force =     0.00395853   -0.00000000    0.00191283
     atom    6 type  1   force =    -0.00000000    0.00395853    0.00191283
     atom    7 type  1   force =    -0.00000000   -0.00395853    0.00191283
     atom    8 type  1   force =    -0.00395853   -0.00000000    0.00191283
     atom    9 type  2   force =    -0.00000000   -0.00000000   -0.00000000
     atom   10 type  2   force =     0.00000000    0.00000000    0.00000000
     atom   11 type  3   force =    -0.00000000   -0.00000000   -0.00000000
     atom   12 type  3   force =    -0.00000000    0.00000000    0.00000000
     The Hubbard contrib.    to forces
     atom    1 type  1   force =     0.00000000    0.00000000    0.00000000
     atom    2 type  1   force =     0.00000000    0.00000000    0.00000000
     atom    3 type  1   force =     0.00000000    0.00000000    0.00000000
     atom    4 type  1   force =     0.00000000    0.00000000    0.00000000
     atom    5 type  1   force =     0.00000000    0.00000000    0.00000000
     atom    6 type  1   force =     0.00000000    0.00000000    0.00000000
     atom    7 type  1   force =     0.00000000    0.00000000    0.00000000
     atom    8 type  1   force =     0.00000000    0.00000000    0.00000000
     atom    9 type  2   force =     0.00000000    0.00000000    0.00000000
     atom   10 type  2   force =     0.00000000    0.00000000    0.00000000
     atom   11 type  3   force =     0.00000000    0.00000000    0.00000000
     atom   12 type  3   force =     0.00000000    0.00000000    0.00000000
     The SCF correction term to forces
     atom    1 type  1   force =    -0.00000000    0.00000076   -0.00000109
     atom    2 type  1   force =     0.00000076    0.00000000   -0.00000109
     atom    3 type  1   force =    -0.00000076   -0.00000000   -0.00000109
     atom    4 type  1   force =    -0.00000000   -0.00000076   -0.00000109
     atom    5 type  1   force =     0.00000076   -0.00000000    0.00000109
     atom    6 type  1   force =    -0.00000000    0.00000076    0.00000109
     atom    7 type  1   force =     0.00000000   -0.00000076    0.00000109
     atom    8 type  1   force =    -0.00000076   -0.00000000    0.00000109
     atom    9 type  2   force =    -0.00000000   -0.00000000   -0.00000000
     atom   10 type  2   force =    -0.00000000    0.00000000   -0.00000000
     atom   11 type  3   force =    -0.00000000    0.00000000    0.00000000
     atom   12 type  3   force =     0.00000000    0.00000000    0.00000000

     Total force =     0.000221     Total SCF correction =     0.000004


     Computing stress (Cartesian axis) and pressure


     negative rho (up, down):  9.015E-02 0.000E+00
          total   stress  (Ry/bohr**3)                   (kbar)     P=        0.06
   0.00000034  -0.00000000   0.00000000            0.05       -0.00        0.00
  -0.00000000   0.00000034  -0.00000000           -0.00        0.05       -0.00
   0.00000000  -0.00000000   0.00000047            0.00       -0.00        0.07

     kinetic stress (kbar)  22587.73      0.00     -0.00
                                0.00  22587.73      0.00
                                0.00      0.00  22360.18

     local   stress (kbar)  -5488.73     -0.00     -0.00
                               -0.00  -5488.73      0.00
                               -0.00      0.00 -24439.36

     nonloc. stress (kbar)   6108.30     -0.00      0.00
                               -0.00   6108.30     -0.00
                                0.00     -0.00   6083.44

     hartree stress (kbar)   6764.40      0.00     -0.00
                                0.00   6764.40      0.00
                               -0.00      0.00  13931.57

     exc-cor stress (kbar)   -958.15     -0.00     -0.00
                               -0.00   -958.15      0.00
                               -0.00      0.00   -944.73

     corecor stress (kbar)  -4435.99      0.00      0.00
                                0.00  -4435.99     -0.00
                                0.00     -0.00  -4435.05

     ewald   stress (kbar) -24577.51     -0.00     -0.00
                               -0.00 -24577.51     -0.00
                               -0.00     -0.00 -12555.98

     hubbard stress (kbar)      0.00      0.00      0.00
                                0.00      0.00      0.00
                                0.00      0.00      0.00

     DFT-D   stress (kbar)      0.00      0.00      0.00
                                0.00      0.00      0.00
                                0.00      0.00      0.00

     XDM     stress (kbar)      0.00      0.00      0.00
                                0.00      0.00      0.00
                                0.00      0.00      0.00

     dft-nl  stress (kbar)      0.00      0.00      0.00
                                0.00      0.00      0.00
                                0.00      0.00      0.00

     TS-vdW  stress (kbar)      0.00      0.00      0.00
                                0.00      0.00      0.00
                                0.00      0.00      0.00

     MDB     stress (kbar)      0.00      0.00      0.00
                                0.00      0.00      0.00
                                0.00      0.00      0.00

     3D-RISM stress (kbar)      0.00      0.00      0.00
                                0.00      0.00      0.00
                                0.00      0.00      0.00


     Writing all to output data dir ./out/aiida.save/ :
     XML data file, charge density, pseudopotentials, collected wavefunctions
 
     init_run     :      2.19s CPU      2.36s WALL (       2 calls)
     electrons    :     92.52s CPU    105.95s WALL (      10 calls)
     update_pot   :      0.96s CPU      1.26s WALL (       8 calls)
     forces       :      2.00s CPU      2.18s WALL (      10 calls)
     stress       :      5.96s CPU      6.39s WALL (      10 calls)

     Called by init_run:
     wfcinit      :      0.14s CPU      0.18s WALL (       2 calls)
     wfcinit:atom :      0.00s CPU      0.00s WALL (       8 calls)
     wfcinit:wfcr :      0.13s CPU      0.16s WALL (       8 calls)
     potinit      :      0.40s CPU      0.47s WALL (       2 calls)
     hinit0       :      0.07s CPU      0.08s WALL (       2 calls)

     Called by electrons:
     c_bands      :     55.98s CPU     60.51s WALL (      93 calls)
     sum_band     :     16.56s CPU     21.85s WALL (      93 calls)
     v_of_rho     :      1.44s CPU      1.60s WALL (      97 calls)
     v_h          :      0.07s CPU      0.08s WALL (      97 calls)
     v_xc         :      1.55s CPU      1.73s WALL (     117 calls)
     newd         :     12.57s CPU     13.80s WALL (      97 calls)
     PAW_pot      :      6.68s CPU      9.15s WALL (     105 calls)
     mix_rho      :      0.16s CPU      0.19s WALL (      93 calls)

     Called by c_bands:
     init_us_2    :      0.38s CPU      0.42s WALL (     864 calls)
     cegterg      :     15.16s CPU     17.39s WALL (     372 calls)

     Called by sum_band:
     sum_band:wei :      0.07s CPU      0.10s WALL (      93 calls)
     sum_band:loo :      1.98s CPU      2.11s WALL (      93 calls)
     sum_band:buf :      0.05s CPU      0.05s WALL (     372 calls)
     sum_band:ini :      0.15s CPU      0.16s WALL (     372 calls)
     sum_band:cal :      0.23s CPU      0.23s WALL (     404 calls)
     sum_band:bec :      0.04s CPU      0.04s WALL (     404 calls)
     addusdens    :      3.55s CPU      3.78s WALL (      93 calls)
                                        0.00s GPU  (      93 calls)
     addusd:skk   :      0.05s CPU      0.05s WALL (     279 calls)
                                        0.00s GPU  (     279 calls)

     Called by *egterg:
     cdiaghg      :      3.55s CPU      3.91s WALL (    1307 calls)
     cegterg:over :      0.83s CPU      0.92s WALL (     991 calls)
     cegterg:upda :      0.27s CPU      0.31s WALL (     991 calls)
     cegterg:last :      0.60s CPU      0.68s WALL (     764 calls)
     h_psi        :      8.78s CPU     10.28s WALL (    1371 calls)
     s_psi        :      0.43s CPU      0.53s WALL (    1371 calls)
     g_psi        :      0.03s CPU      0.03s WALL (     991 calls)

     Called by h_psi:
     h_psi:calbec :      0.67s CPU      0.77s WALL (    1371 calls)
     vloc_psi     :      7.52s CPU      8.89s WALL (    1371 calls)
                                        0.00s GPU  (    1371 calls)
     add_vuspsi   :      0.49s CPU      0.51s WALL (    1371 calls)

     General routines
     calbec       :      1.40s CPU      1.54s WALL (    2455 calls)
     fft          :      0.49s CPU      0.61s WALL (    1505 calls)
     ffts         :      0.20s CPU      0.43s WALL (     190 calls)
     fftw         :      7.88s CPU      9.31s WALL (  131840 calls)
     interpolate  :      0.08s CPU      0.09s WALL (      97 calls)
 
     Parallel routines

     PAW routines
     PAW_pot      :      6.68s CPU      9.15s WALL (     105 calls)
     PAW_symme    :      0.29s CPU      0.33s WALL (     198 calls)
 
     PWSCF        :   1m46.20s CPU   2m 1.00s WALL

 
   This run was terminated on:  12: 1:27  31May2026            

=------------------------------------------------------------------------------=
   JOB DONE.
=------------------------------------------------------------------------------=
