12
Lattice="      3.5933092520       3.5933092520       3.1556474120      -3.5933092520      -3.5933092520       3.1556474120       3.5933092520      -3.5933092520      -3.1556474120" Properties=species:S:1:pos:R:3:forces:R:3
O         0.0000000000     -2.2705355745      0.4805439779      0.0000000000     -0.0018859043      0.0007034539
O         1.3227736778      0.0000000004      2.0583676842     -0.0018859043     -0.0000000000      0.0007034539
O         2.2705355745     -3.5933092520     -1.0972797281      0.0018859043      0.0000000000      0.0007034539
O        -0.0000000004     -4.9160829298      0.4805439782     -0.0000000000      0.0018859043      0.0007034539
O         1.3227736775     -3.5933092520      2.6751034341     -0.0018859043     -0.0000000000     -0.0007034539
O         3.5933092524     -2.2705355742      1.0972797278     -0.0000000000     -0.0018859043     -0.0007034539
O         0.0000000000     -1.3227736775      4.2529271401      0.0000000000      0.0018859043     -0.0007034539
O        -1.3227736778     -3.5933092524      2.6751034338      0.0018859043     -0.0000000000     -0.0007034539
V         0.0000000000      0.0000000000      3.1556474120      0.0000000000      0.0000000000     -0.0000000000
V         0.0000000000     -3.5933092520      1.5778237060     -0.0000000000      0.0000000000      0.0000000000
Y         0.0000000000      0.0000000000      0.0000000000     -0.0000000000     -0.0000000000      0.0000000000
Y         3.5933092520     -0.0000000000      1.5778237060      0.0000000000      0.0000000000      0.0000000000
